nqpoint: 193    
npath: 7      
segment_nqpoint:
- 26
- 26
- 36
- 17
- 26
- 26
- 36
reciprocal_lattice:
- [   0.12907680,   0.00000000,   0.00000000 ] # a*
- [   0.00000000,   0.12907680,   0.00000000 ] # b*
- [   0.00000000,   0.00000000,   0.08131547 ] # c*
natom: 18     
lattice:
- [     7.747325595926513,     0.000000000000000,     0.000000000000000 ] # a
- [     0.000000000000000,     7.747325595926513,     0.000000000000000 ] # b
- [     0.000000000000000,     0.000000000000000,    12.297782866419567 ] # c
points:
- symbol: Rb # 1
  coordinates: [  0.500000000000000,  0.000000000000000,  0.250000000000000 ]
  mass: 85.467800
- symbol: Rb # 2
  coordinates: [  0.500000000000000,  0.000000000000000,  0.750000000000000 ]
  mass: 85.467800
- symbol: Rb # 3
  coordinates: [  0.000000000000000,  0.500000000000000,  0.250000000000000 ]
  mass: 85.467800
- symbol: Rb # 4
  coordinates: [  0.000000000000000,  0.500000000000000,  0.750000000000000 ]
  mass: 85.467800
- symbol: Sn # 5
  coordinates: [  0.000000000000000,  0.000000000000000,  0.000000000000000 ]
  mass: 118.710000
- symbol: Sn # 6
  coordinates: [  0.500000000000000,  0.500000000000000,  0.500000000000000 ]
  mass: 118.710000
- symbol: I  # 7
  coordinates: [  0.308235278050092,  0.204833014334847,  0.000000000000000 ]
  mass: 126.904470
- symbol: I  # 8
  coordinates: [  0.691764691949911,  0.795166970665158,  0.000000000000000 ]
  mass: 126.904470
- symbol: I  # 9
  coordinates: [  0.795166970665158,  0.308235278050092,  0.000000000000000 ]
  mass: 126.904470
- symbol: I  # 10
  coordinates: [  0.204833014334847,  0.691764691949911,  0.000000000000000 ]
  mass: 126.904470
- symbol: I  # 11
  coordinates: [  0.191764721949905,  0.704833029334842,  0.500000000000000 ]
  mass: 126.904470
- symbol: I  # 12
  coordinates: [  0.808235308050089,  0.295166970665154,  0.500000000000000 ]
  mass: 126.904470
- symbol: I  # 13
  coordinates: [  0.704833029334842,  0.808235308050089,  0.500000000000000 ]
  mass: 126.904470
- symbol: I  # 14
  coordinates: [  0.295166970665154,  0.191764721949905,  0.500000000000000 ]
  mass: 126.904470
- symbol: I  # 15
  coordinates: [  0.000000000000000,  0.000000000000000,  0.236507686596452 ]
  mass: 126.904470
- symbol: I  # 16
  coordinates: [  0.000000000000000,  0.000000000000000,  0.763492343403555 ]
  mass: 126.904470
- symbol: I  # 17
  coordinates: [  0.500000000000000,  0.500000000000000,  0.263492313403547 ]
  mass: 126.904470
- symbol: I  # 18
  coordinates: [  0.500000000000000,  0.500000000000000,  0.736507656596445 ]
  mass: 126.904470
supercell_matrix:
- [    9,    0,    0 ]
- [    0,    9,    0 ]
- [    0,    0,    4 ]

phonon:
- q-position: [    0.0000000,    0.0000000,    0.0000000 ]
  distance:    0.0000000
  label: '\Gamma'
  band:
  - # 1
    frequency:   -0.0000000746
  - # 2
    frequency:   -0.0000000569
  - # 3
    frequency:   -0.0000000528
  - # 4
    frequency:    0.2110463975
  - # 5
    frequency:    0.2110463975
  - # 6
    frequency:    0.5526090147
  - # 7
    frequency:    0.5526090147
  - # 8
    frequency:    0.8854800879
  - # 9
    frequency:    0.8854800879
  - # 10
    frequency:    0.8927660830
  - # 11
    frequency:    0.8927660830
  - # 12
    frequency:    0.9026676284
  - # 13
    frequency:    1.0412758959
  - # 14
    frequency:    1.1808941862
  - # 15
    frequency:    1.2470262294
  - # 16
    frequency:    1.2470262294
  - # 17
    frequency:    1.3150639877
  - # 18
    frequency:    1.3821551030
  - # 19
    frequency:    1.4063328315
  - # 20
    frequency:    1.4063328315
  - # 21
    frequency:    1.4260165182
  - # 22
    frequency:    1.4260165182
  - # 23
    frequency:    1.5307100676
  - # 24
    frequency:    1.5307100676
  - # 25
    frequency:    1.6174330376
  - # 26
    frequency:    1.6821215869
  - # 27
    frequency:    1.7368634653
  - # 28
    frequency:    1.7368634653
  - # 29
    frequency:    1.9522026719
  - # 30
    frequency:    1.9809388192
  - # 31
    frequency:    1.9809388192
  - # 32
    frequency:    1.9904980804
  - # 33
    frequency:    2.0628427602
  - # 34
    frequency:    2.0712891846
  - # 35
    frequency:    2.1963467945
  - # 36
    frequency:    2.1963467945
  - # 37
    frequency:    2.2268890563
  - # 38
    frequency:    2.2268890563
  - # 39
    frequency:    2.2743255770
  - # 40
    frequency:    2.3079351033
  - # 41
    frequency:    2.3079351033
  - # 42
    frequency:    2.3910212350
  - # 43
    frequency:    2.8687977136
  - # 44
    frequency:    2.9242677897
  - # 45
    frequency:    2.9244170878
  - # 46
    frequency:    3.2144476985
  - # 47
    frequency:    3.3702596269
  - # 48
    frequency:    3.4279208305
  - # 49
    frequency:    4.4609747308
  - # 50
    frequency:    4.4738423835
  - # 51
    frequency:    4.7337107735
  - # 52
    frequency:    4.7337107735
  - # 53
    frequency:    4.7859436523
  - # 54
    frequency:    4.7859436523

- q-position: [    0.0000000,    0.0200000,    0.0000000 ]
  distance:    0.0025815
  band:
  - # 1
    frequency:    0.0118617809
  - # 2
    frequency:    0.0255617511
  - # 3
    frequency:    0.0565669496
  - # 4
    frequency:    0.2135407923
  - # 5
    frequency:    0.2150095240
  - # 6
    frequency:    0.5531391199
  - # 7
    frequency:    0.5535997737
  - # 8
    frequency:    0.8779976963
  - # 9
    frequency:    0.8854076865
  - # 10
    frequency:    0.8932695205
  - # 11
    frequency:    0.8933806113
  - # 12
    frequency:    0.9107114652
  - # 13
    frequency:    1.0419437749
  - # 14
    frequency:    1.1797411570
  - # 15
    frequency:    1.2468200039
  - # 16
    frequency:    1.2470583297
  - # 17
    frequency:    1.3136564821
  - # 18
    frequency:    1.3824754253
  - # 19
    frequency:    1.4064763377
  - # 20
    frequency:    1.4078797118
  - # 21
    frequency:    1.4258638008
  - # 22
    frequency:    1.4263292864
  - # 23
    frequency:    1.5303954357
  - # 24
    frequency:    1.5310725832
  - # 25
    frequency:    1.6174570601
  - # 26
    frequency:    1.6820637925
  - # 27
    frequency:    1.7364861343
  - # 28
    frequency:    1.7371746568
  - # 29
    frequency:    1.9524477466
  - # 30
    frequency:    1.9808731065
  - # 31
    frequency:    1.9814128301
  - # 32
    frequency:    1.9902720253
  - # 33
    frequency:    2.0626344203
  - # 34
    frequency:    2.0710685074
  - # 35
    frequency:    2.1961627441
  - # 36
    frequency:    2.1963914173
  - # 37
    frequency:    2.2268041424
  - # 38
    frequency:    2.2271943733
  - # 39
    frequency:    2.2744767666
  - # 40
    frequency:    2.3076105869
  - # 41
    frequency:    2.3084850355
  - # 42
    frequency:    2.3909613265
  - # 43
    frequency:    2.8689774775
  - # 44
    frequency:    2.9248038378
  - # 45
    frequency:    2.9250367983
  - # 46
    frequency:    3.2136604057
  - # 47
    frequency:    3.3701139391
  - # 48
    frequency:    3.4277726350
  - # 49
    frequency:    4.4609531614
  - # 50
    frequency:    4.4737974435
  - # 51
    frequency:    4.7334404951
  - # 52
    frequency:    4.7342546024
  - # 53
    frequency:    4.7854955111
  - # 54
    frequency:    4.7877914074

- q-position: [    0.0000000,    0.0400000,    0.0000000 ]
  distance:    0.0051631
  band:
  - # 1
    frequency:    0.0265720517
  - # 2
    frequency:    0.0510901420
  - # 3
    frequency:    0.1128393796
  - # 4
    frequency:    0.2208261827
  - # 5
    frequency:    0.2261441262
  - # 6
    frequency:    0.5546980252
  - # 7
    frequency:    0.5565400153
  - # 8
    frequency:    0.8660944559
  - # 9
    frequency:    0.8851884217
  - # 10
    frequency:    0.8947801802
  - # 11
    frequency:    0.8951802643
  - # 12
    frequency:    0.9242909448
  - # 13
    frequency:    1.0439300451
  - # 14
    frequency:    1.1763652984
  - # 15
    frequency:    1.2461982791
  - # 16
    frequency:    1.2470861034
  - # 17
    frequency:    1.3097004454
  - # 18
    frequency:    1.3834528939
  - # 19
    frequency:    1.4069019164
  - # 20
    frequency:    1.4121892626
  - # 21
    frequency:    1.4254166765
  - # 22
    frequency:    1.4272619637
  - # 23
    frequency:    1.5294661415
  - # 24
    frequency:    1.5321690988
  - # 25
    frequency:    1.6174787078
  - # 26
    frequency:    1.6819416660
  - # 27
    frequency:    1.7353668789
  - # 28
    frequency:    1.7381075637
  - # 29
    frequency:    1.9530908553
  - # 30
    frequency:    1.9806672219
  - # 31
    frequency:    1.9828245918
  - # 32
    frequency:    1.9896926534
  - # 33
    frequency:    2.0620203446
  - # 34
    frequency:    2.0704246479
  - # 35
    frequency:    2.1956110071
  - # 36
    frequency:    2.1965223639
  - # 37
    frequency:    2.2265178249
  - # 38
    frequency:    2.2280919591
  - # 39
    frequency:    2.2749285473
  - # 40
    frequency:    2.3066383509
  - # 41
    frequency:    2.3101415953
  - # 42
    frequency:    2.3907812860
  - # 43
    frequency:    2.8695152863
  - # 44
    frequency:    2.9264023469
  - # 45
    frequency:    2.9268827621
  - # 46
    frequency:    3.2113114878
  - # 47
    frequency:    3.3696885542
  - # 48
    frequency:    3.4273331673
  - # 49
    frequency:    4.4608889721
  - # 50
    frequency:    4.4736631754
  - # 51
    frequency:    4.7326307737
  - # 52
    frequency:    4.7358924589
  - # 53
    frequency:    4.7841591094
  - # 54
    frequency:    4.7932937906

- q-position: [    0.0000000,    0.0600000,    0.0000000 ]
  distance:    0.0077446
  band:
  - # 1
    frequency:    0.0449052763
  - # 2
    frequency:    0.0765492421
  - # 3
    frequency:    0.1685217122
  - # 4
    frequency:    0.2323705997
  - # 5
    frequency:    0.2427463810
  - # 6
    frequency:    0.5571985058
  - # 7
    frequency:    0.5613359690
  - # 8
    frequency:    0.8540842473
  - # 9
    frequency:    0.8848162099
  - # 10
    frequency:    0.8973002273
  - # 11
    frequency:    0.8980374240
  - # 12
    frequency:    0.9390673429
  - # 13
    frequency:    1.0471810682
  - # 14
    frequency:    1.1709815094
  - # 15
    frequency:    1.2451525257
  - # 16
    frequency:    1.2469393297
  - # 17
    frequency:    1.3037970792
  - # 18
    frequency:    1.3851162306
  - # 19
    frequency:    1.4075953156
  - # 20
    frequency:    1.4184917875
  - # 21
    frequency:    1.4247062969
  - # 22
    frequency:    1.4287976160
  - # 23
    frequency:    1.5279650078
  - # 24
    frequency:    1.5340239484
  - # 25
    frequency:    1.6173517256
  - # 26
    frequency:    1.6819044308
  - # 27
    frequency:    1.7335410714
  - # 28
    frequency:    1.7396598358
  - # 29
    frequency:    1.9538449279
  - # 30
    frequency:    1.9802947255
  - # 31
    frequency:    1.9851441510
  - # 32
    frequency:    1.9890666781
  - # 33
    frequency:    2.0610336547
  - # 34
    frequency:    2.0694077672
  - # 35
    frequency:    2.1946928692
  - # 36
    frequency:    2.1967305230
  - # 37
    frequency:    2.2259546774
  - # 38
    frequency:    2.2295303200
  - # 39
    frequency:    2.2756759138
  - # 40
    frequency:    2.3050224280
  - # 41
    frequency:    2.3129104283
  - # 42
    frequency:    2.3904801704
  - # 43
    frequency:    2.8704068563
  - # 44
    frequency:    2.9290343695
  - # 45
    frequency:    2.9299156935
  - # 46
    frequency:    3.2074394843
  - # 47
    frequency:    3.3690180550
  - # 48
    frequency:    3.4266176901
  - # 49
    frequency:    4.4607837101
  - # 50
    frequency:    4.4734412260
  - # 51
    frequency:    4.7312871420
  - # 52
    frequency:    4.7386415321
  - # 53
    frequency:    4.7819597582
  - # 54
    frequency:    4.8023266906

- q-position: [    0.0000000,    0.0800000,    0.0000000 ]
  distance:    0.0103261
  band:
  - # 1
    frequency:    0.0662480962
  - # 2
    frequency:    0.1018980409
  - # 3
    frequency:    0.2233147669
  - # 4
    frequency:    0.2474514527
  - # 5
    frequency:    0.2630875698
  - # 6
    frequency:    0.5605167860
  - # 7
    frequency:    0.5678387439
  - # 8
    frequency:    0.8424981193
  - # 9
    frequency:    0.8842812380
  - # 10
    frequency:    0.9008364941
  - # 11
    frequency:    0.9017530653
  - # 12
    frequency:    0.9544660841
  - # 13
    frequency:    1.0516029583
  - # 14
    frequency:    1.1638643870
  - # 15
    frequency:    1.2436705196
  - # 16
    frequency:    1.2464198954
  - # 17
    frequency:    1.2965498798
  - # 18
    frequency:    1.3874787269
  - # 19
    frequency:    1.4085346681
  - # 20
    frequency:    1.4237784964
  - # 21
    frequency:    1.4259533871
  - # 22
    frequency:    1.4309080149
  - # 23
    frequency:    1.5259601417
  - # 24
    frequency:    1.5366684729
  - # 25
    frequency:    1.6168529197
  - # 26
    frequency:    1.6821816376
  - # 27
    frequency:    1.7310591526
  - # 28
    frequency:    1.7418264418
  - # 29
    frequency:    1.9542252110
  - # 30
    frequency:    1.9797110267
  - # 31
    frequency:    1.9883242691
  - # 32
    frequency:    1.9889102158
  - # 33
    frequency:    2.0597303295
  - # 34
    frequency:    2.0680889514
  - # 35
    frequency:    2.1934106146
  - # 36
    frequency:    2.1969996989
  - # 37
    frequency:    2.2250416159
  - # 38
    frequency:    2.2314345364
  - # 39
    frequency:    2.2767116230
  - # 40
    frequency:    2.3027700349
  - # 41
    frequency:    2.3167618473
  - # 42
    frequency:    2.3900564155
  - # 43
    frequency:    2.8716455563
  - # 44
    frequency:    2.9326515479
  - # 45
    frequency:    2.9340708468
  - # 46
    frequency:    3.2021075024
  - # 47
    frequency:    3.3681585555
  - # 48
    frequency:    3.4256513141
  - # 49
    frequency:    4.4606399219
  - # 50
    frequency:    4.4731343106
  - # 51
    frequency:    4.7294230327
  - # 52
    frequency:    4.7425221956
  - # 53
    frequency:    4.7789456895
  - # 54
    frequency:    4.8146815242

- q-position: [    0.0000000,    0.1000000,    0.0000000 ]
  distance:    0.0129077
  band:
  - # 1
    frequency:    0.0897294749
  - # 2
    frequency:    0.1270881437
  - # 3
    frequency:    0.2653015130
  - # 4
    frequency:    0.2769093870
  - # 5
    frequency:    0.2858479726
  - # 6
    frequency:    0.5645203048
  - # 7
    frequency:    0.5758541939
  - # 8
    frequency:    0.8314629356
  - # 9
    frequency:    0.8835704444
  - # 10
    frequency:    0.9054036581
  - # 11
    frequency:    0.9060761704
  - # 12
    frequency:    0.9702937237
  - # 13
    frequency:    1.0570568684
  - # 14
    frequency:    1.1552924979
  - # 15
    frequency:    1.2417391170
  - # 16
    frequency:    1.2453613123
  - # 17
    frequency:    1.2884052492
  - # 18
    frequency:    1.3905262703
  - # 19
    frequency:    1.4096932702
  - # 20
    frequency:    1.4226857987
  - # 21
    frequency:    1.4335541081
  - # 22
    frequency:    1.4338725901
  - # 23
    frequency:    1.5235401010
  - # 24
    frequency:    1.5401257327
  - # 25
    frequency:    1.6157230608
  - # 26
    frequency:    1.6830440292
  - # 27
    frequency:    1.7279767647
  - # 28
    frequency:    1.7445981611
  - # 29
    frequency:    1.9536565423
  - # 30
    frequency:    1.9788531377
  - # 31
    frequency:    1.9898391642
  - # 32
    frequency:    1.9923038748
  - # 33
    frequency:    2.0581896813
  - # 34
    frequency:    2.0665471206
  - # 35
    frequency:    2.1917677398
  - # 36
    frequency:    2.1973055425
  - # 37
    frequency:    2.2237539658
  - # 38
    frequency:    2.2337192541
  - # 39
    frequency:    2.2780275259
  - # 40
    frequency:    2.2998928993
  - # 41
    frequency:    2.3215993808
  - # 42
    frequency:    2.3895078484
  - # 43
    frequency:    2.8732230516
  - # 44
    frequency:    2.9371860443
  - # 45
    frequency:    2.9392591278
  - # 46
    frequency:    3.1954015833
  - # 47
    frequency:    3.3671853710
  - # 48
    frequency:    3.4244684691
  - # 49
    frequency:    4.4604611060
  - # 50
    frequency:    4.4727461697
  - # 51
    frequency:    4.7270609860
  - # 52
    frequency:    4.7475330914
  - # 53
    frequency:    4.7752097187
  - # 54
    frequency:    4.8300679385

- q-position: [    0.0000000,    0.1200000,    0.0000000 ]
  distance:    0.0154892
  band:
  - # 1
    frequency:    0.1146379915
  - # 2
    frequency:    0.1520619276
  - # 3
    frequency:    0.2852059695
  - # 4
    frequency:    0.3101256890
  - # 5
    frequency:    0.3289713948
  - # 6
    frequency:    0.5691023475
  - # 7
    frequency:    0.5851547681
  - # 8
    frequency:    0.8210189887
  - # 9
    frequency:    0.8826681779
  - # 10
    frequency:    0.9107282385
  - # 11
    frequency:    0.9110259126
  - # 12
    frequency:    0.9864106808
  - # 13
    frequency:    1.0633557568
  - # 14
    frequency:    1.1455307149
  - # 15
    frequency:    1.2393477085
  - # 16
    frequency:    1.2436547053
  - # 17
    frequency:    1.2796534676
  - # 18
    frequency:    1.3942095586
  - # 19
    frequency:    1.4110432855
  - # 20
    frequency:    1.4214781426
  - # 21
    frequency:    1.4366872794
  - # 22
    frequency:    1.4417226083
  - # 23
    frequency:    1.5208073669
  - # 24
    frequency:    1.5443889632
  - # 25
    frequency:    1.6137300983
  - # 26
    frequency:    1.6847422696
  - # 27
    frequency:    1.7243454798
  - # 28
    frequency:    1.7479598391
  - # 29
    frequency:    1.9517560492
  - # 30
    frequency:    1.9776404974
  - # 31
    frequency:    1.9922825877
  - # 32
    frequency:    1.9970119503
  - # 33
    frequency:    2.0565136264
  - # 34
    frequency:    2.0648584350
  - # 35
    frequency:    2.1897692520
  - # 36
    frequency:    2.1976147867
  - # 37
    frequency:    2.2221380381
  - # 38
    frequency:    2.2363016328
  - # 39
    frequency:    2.2796158916
  - # 40
    frequency:    2.2964100784
  - # 41
    frequency:    2.3272498042
  - # 42
    frequency:    2.3888317049
  - # 43
    frequency:    2.8751300223
  - # 44
    frequency:    2.9425506422
  - # 45
    frequency:    2.9453686782
  - # 46
    frequency:    3.1874285173
  - # 47
    frequency:    3.3661896895
  - # 48
    frequency:    3.4231120856
  - # 49
    frequency:    4.4602516471
  - # 50
    frequency:    4.4722815102
  - # 51
    frequency:    4.7242320551
  - # 52
    frequency:    4.7535291357
  - # 53
    frequency:    4.7710068498
  - # 54
    frequency:    4.8481201934

- q-position: [    0.0000000,    0.1400000,    0.0000000 ]
  distance:    0.0180708
  band:
  - # 1
    frequency:    0.1404627005
  - # 2
    frequency:    0.1767514931
  - # 3
    frequency:    0.3065449925
  - # 4
    frequency:    0.3353197072
  - # 5
    frequency:    0.3791062069
  - # 6
    frequency:    0.5742307752
  - # 7
    frequency:    0.5954922825
  - # 8
    frequency:    0.8111747475
  - # 9
    frequency:    0.8815570277
  - # 10
    frequency:    0.9154298239
  - # 11
    frequency:    0.9177354339
  - # 12
    frequency:    1.0026536063
  - # 13
    frequency:    1.0702646807
  - # 14
    frequency:    1.1348492773
  - # 15
    frequency:    1.2364919243
  - # 16
    frequency:    1.2412506025
  - # 17
    frequency:    1.2704813582
  - # 18
    frequency:    1.3984381756
  - # 19
    frequency:    1.4125600015
  - # 20
    frequency:    1.4201936043
  - # 21
    frequency:    1.4402514427
  - # 22
    frequency:    1.4491444453
  - # 23
    frequency:    1.5178705804
  - # 24
    frequency:    1.5493990914
  - # 25
    frequency:    1.6107335652
  - # 26
    frequency:    1.6874443928
  - # 27
    frequency:    1.7202065158
  - # 28
    frequency:    1.7518888403
  - # 29
    frequency:    1.9485424323
  - # 30
    frequency:    1.9759780914
  - # 31
    frequency:    1.9962673256
  - # 32
    frequency:    2.0023712628
  - # 33
    frequency:    2.0548234157
  - # 34
    frequency:    2.0630904183
  - # 35
    frequency:    2.1874220566
  - # 36
    frequency:    2.1978852201
  - # 37
    frequency:    2.2203049687
  - # 38
    frequency:    2.2391114815
  - # 39
    frequency:    2.2814703682
  - # 40
    frequency:    2.2923528401
  - # 41
    frequency:    2.3334773259
  - # 42
    frequency:    2.3880246565
  - # 43
    frequency:    2.8773568581
  - # 44
    frequency:    2.9486392138
  - # 45
    frequency:    2.9522669771
  - # 46
    frequency:    3.1783132064
  - # 47
    frequency:    3.3652742167
  - # 48
    frequency:    3.4216324149
  - # 49
    frequency:    4.4600167353
  - # 50
    frequency:    4.4717459324
  - # 51
    frequency:    4.7209749282
  - # 52
    frequency:    4.7589867060
  - # 53
    frequency:    4.7679837214
  - # 54
    frequency:    4.8684058748

- q-position: [    0.0000000,    0.1600000,    0.0000000 ]
  distance:    0.0206523
  band:
  - # 1
    frequency:    0.1668435715
  - # 2
    frequency:    0.2010787383
  - # 3
    frequency:    0.3287995034
  - # 4
    frequency:    0.3610229183
  - # 5
    frequency:    0.4267717931
  - # 6
    frequency:    0.5800407882
  - # 7
    frequency:    0.6066110129
  - # 8
    frequency:    0.8019215824
  - # 9
    frequency:    0.8802188208
  - # 10
    frequency:    0.9199257183
  - # 11
    frequency:    0.9255666106
  - # 12
    frequency:    1.0187596307
  - # 13
    frequency:    1.0775059308
  - # 14
    frequency:    1.1235911722
  - # 15
    frequency:    1.2331770980
  - # 16
    frequency:    1.2381502399
  - # 17
    frequency:    1.2610214963
  - # 18
    frequency:    1.4030806929
  - # 19
    frequency:    1.4142259329
  - # 20
    frequency:    1.4188501940
  - # 21
    frequency:    1.4441856850
  - # 22
    frequency:    1.4559307117
  - # 23
    frequency:    1.5148363260
  - # 24
    frequency:    1.5550314666
  - # 25
    frequency:    1.6067163706
  - # 26
    frequency:    1.6912056221
  - # 27
    frequency:    1.7155887971
  - # 28
    frequency:    1.7563542674
  - # 29
    frequency:    1.9443156206
  - # 30
    frequency:    1.9737631326
  - # 31
    frequency:    2.0015294893
  - # 32
    frequency:    2.0083015084
  - # 33
    frequency:    2.0532525259
  - # 34
    frequency:    2.0613003246
  - # 35
    frequency:    2.1847354402
  - # 36
    frequency:    2.1980666650
  - # 37
    frequency:    2.2184065559
  - # 38
    frequency:    2.2420967858
  - # 39
    frequency:    2.2835863090
  - # 40
    frequency:    2.2877720572
  - # 41
    frequency:    2.3400110969
  - # 42
    frequency:    2.3870828462
  - # 43
    frequency:    2.8798942640
  - # 44
    frequency:    2.9553277816
  - # 45
    frequency:    2.9598035356
  - # 46
    frequency:    3.1681956923
  - # 47
    frequency:    3.3645478193
  - # 48
    frequency:    3.4200854038
  - # 49
    frequency:    4.4597622684
  - # 50
    frequency:    4.4711458456
  - # 51
    frequency:    4.7173353088
  - # 52
    frequency:    4.7571599807
  - # 53
    frequency:    4.7730161045
  - # 54
    frequency:    4.8904364588

- q-position: [    0.0000000,    0.1800000,    0.0000000 ]
  distance:    0.0232338
  band:
  - # 1
    frequency:    0.1935206580
  - # 2
    frequency:    0.2249567779
  - # 3
    frequency:    0.3515389949
  - # 4
    frequency:    0.3869496188
  - # 5
    frequency:    0.4710504931
  - # 6
    frequency:    0.5870622928
  - # 7
    frequency:    0.6182609080
  - # 8
    frequency:    0.7932392738
  - # 9
    frequency:    0.8786358004
  - # 10
    frequency:    0.9240061555
  - # 11
    frequency:    0.9345460037
  - # 12
    frequency:    1.0341713454
  - # 13
    frequency:    1.0847693407
  - # 14
    frequency:    1.1123704705
  - # 15
    frequency:    1.2294210176
  - # 16
    frequency:    1.2343946844
  - # 17
    frequency:    1.2513852324
  - # 18
    frequency:    1.4079730234
  - # 19
    frequency:    1.4160336956
  - # 20
    frequency:    1.4174394999
  - # 21
    frequency:    1.4484269993
  - # 22
    frequency:    1.4619996702
  - # 23
    frequency:    1.5118015493
  - # 24
    frequency:    1.5611011947
  - # 25
    frequency:    1.6017708375
  - # 26
    frequency:    1.6959836154
  - # 27
    frequency:    1.7105115821
  - # 28
    frequency:    1.7613175260
  - # 29
    frequency:    1.9394281867
  - # 30
    frequency:    1.9708957702
  - # 31
    frequency:    2.0077313769
  - # 32
    frequency:    2.0147216267
  - # 33
    frequency:    2.0519352744
  - # 34
    frequency:    2.0595355417
  - # 35
    frequency:    2.1817216644
  - # 36
    frequency:    2.1981030030
  - # 37
    frequency:    2.2166073383
  - # 38
    frequency:    2.2452231319
  - # 39
    frequency:    2.2827489363
  - # 40
    frequency:    2.2859603498
  - # 41
    frequency:    2.3465733363
  - # 42
    frequency:    2.3860019365
  - # 43
    frequency:    2.8827337429
  - # 44
    frequency:    2.9624763816
  - # 45
    frequency:    2.9678133048
  - # 46
    frequency:    3.1572280007
  - # 47
    frequency:    3.3641192613
  - # 48
    frequency:    3.4185305406
  - # 49
    frequency:    4.4594947421
  - # 50
    frequency:    4.4704883727
  - # 51
    frequency:    4.7133654858
  - # 52
    frequency:    4.7513644602
  - # 53
    frequency:    4.7829186229
  - # 54
    frequency:    4.9136796867

- q-position: [    0.0000000,    0.2000000,    0.0000000 ]
  distance:    0.0258154
  band:
  - # 1
    frequency:    0.2202975676
  - # 2
    frequency:    0.2482927616
  - # 3
    frequency:    0.3744034224
  - # 4
    frequency:    0.4128904243
  - # 5
    frequency:    0.5100604690
  - # 6
    frequency:    0.5968032140
  - # 7
    frequency:    0.6302107541
  - # 8
    frequency:    0.7850990317
  - # 9
    frequency:    0.8767920166
  - # 10
    frequency:    0.9275230656
  - # 11
    frequency:    0.9446791200
  - # 12
    frequency:    1.0473588525
  - # 13
    frequency:    1.0917271936
  - # 14
    frequency:    1.1027556050
  - # 15
    frequency:    1.2252556220
  - # 16
    frequency:    1.2300553243
  - # 17
    frequency:    1.2416809990
  - # 18
    frequency:    1.4129341924
  - # 19
    frequency:    1.4159226645
  - # 20
    frequency:    1.4179863539
  - # 21
    frequency:    1.4529126730
  - # 22
    frequency:    1.4673563470
  - # 23
    frequency:    1.5088478124
  - # 24
    frequency:    1.5673875734
  - # 25
    frequency:    1.5960590307
  - # 26
    frequency:    1.7016789984
  - # 27
    frequency:    1.7049908889
  - # 28
    frequency:    1.7667345548
  - # 29
    frequency:    1.9341756538
  - # 30
    frequency:    1.9672924256
  - # 31
    frequency:    2.0145575140
  - # 32
    frequency:    2.0215512029
  - # 33
    frequency:    2.0509926435
  - # 34
    frequency:    2.0578335815
  - # 35
    frequency:    2.1783967018
  - # 36
    frequency:    2.1979350614
  - # 37
    frequency:    2.2150619307
  - # 38
    frequency:    2.2484627842
  - # 39
    frequency:    2.2774128721
  - # 40
    frequency:    2.2885892970
  - # 41
    frequency:    2.3529010409
  - # 42
    frequency:    2.3847771737
  - # 43
    frequency:    2.8858679449
  - # 44
    frequency:    2.9699318430
  - # 45
    frequency:    2.9761209159
  - # 46
    frequency:    3.1455709968
  - # 47
    frequency:    3.3640902398
  - # 48
    frequency:    3.4170281068
  - # 49
    frequency:    4.4592211292
  - # 50
    frequency:    4.4697812469
  - # 51
    frequency:    4.7091239288
  - # 52
    frequency:    4.7446731385
  - # 53
    frequency:    4.7947414394
  - # 54
    frequency:    4.9375736068

- q-position: [    0.0000000,    0.2200000,    0.0000000 ]
  distance:    0.0283969
  band:
  - # 1
    frequency:    0.2470173231
  - # 2
    frequency:    0.2709919600
  - # 3
    frequency:    0.3970848699
  - # 4
    frequency:    0.4386846191
  - # 5
    frequency:    0.5401383536
  - # 6
    frequency:    0.6125589326
  - # 7
    frequency:    0.6422606645
  - # 8
    frequency:    0.7774660581
  - # 9
    frequency:    0.8746749957
  - # 10
    frequency:    0.9304023194
  - # 11
    frequency:    0.9559360851
  - # 12
    frequency:    1.0540065355
  - # 13
    frequency:    1.0980524725
  - # 14
    frequency:    1.0990871490
  - # 15
    frequency:    1.2207275017
  - # 16
    frequency:    1.2252269454
  - # 17
    frequency:    1.2320218603
  - # 18
    frequency:    1.4142289590
  - # 19
    frequency:    1.4177863193
  - # 20
    frequency:    1.4200941431
  - # 21
    frequency:    1.4575820706
  - # 22
    frequency:    1.4720479419
  - # 23
    frequency:    1.5060383679
  - # 24
    frequency:    1.5736675832
  - # 25
    frequency:    1.5897748696
  - # 26
    frequency:    1.6990481946
  - # 27
    frequency:    1.7081734777
  - # 28
    frequency:    1.7725594535
  - # 29
    frequency:    1.9287801205
  - # 30
    frequency:    1.9628981618
  - # 31
    frequency:    2.0217174681
  - # 32
    frequency:    2.0287109617
  - # 33
    frequency:    2.0505189928
  - # 34
    frequency:    2.0562203078
  - # 35
    frequency:    2.1747811750
  - # 36
    frequency:    2.1975039995
  - # 37
    frequency:    2.2139004070
  - # 38
    frequency:    2.2517520064
  - # 39
    frequency:    2.2719871632
  - # 40
    frequency:    2.2914685610
  - # 41
    frequency:    2.3587599238
  - # 42
    frequency:    2.3834034701
  - # 43
    frequency:    2.8892909011
  - # 44
    frequency:    2.9775313851
  - # 45
    frequency:    2.9845458222
  - # 46
    frequency:    3.1333915426
  - # 47
    frequency:    3.3645480529
  - # 48
    frequency:    3.4156358168
  - # 49
    frequency:    4.4589487489
  - # 50
    frequency:    4.4690327032
  - # 51
    frequency:    4.7046748050
  - # 52
    frequency:    4.7375387138
  - # 53
    frequency:    4.8081407295
  - # 54
    frequency:    4.9615418968

- q-position: [    0.0000000,    0.2400000,    0.0000000 ]
  distance:    0.0309784
  band:
  - # 1
    frequency:    0.2735465821
  - # 2
    frequency:    0.2929628374
  - # 3
    frequency:    0.4193109045
  - # 4
    frequency:    0.4642027998
  - # 5
    frequency:    0.5583027717
  - # 6
    frequency:    0.6369386325
  - # 7
    frequency:    0.6542525448
  - # 8