324  
9    

1    
  0.0068682392178525   0.0000000000000000   0.0072682384417652
  -0.0048606600    0.0019339900   -0.0068616900
   0.0002155900   -0.0000013400   -0.0000349200
   0.0003042500   -0.0000091400   -0.0001182700
  -0.0000397100    0.0000386500   -0.0000727400
   0.0000152300    0.0000167600   -0.0000376700
   0.0000295900   -0.0000194200   -0.0000537500
  -0.0000320700   -0.0000493100   -0.0000802200
   0.0000196500   -0.0000290700   -0.0000447700
   0.0000184500    0.0000136300   -0.0000404600
  -0.0000153300    0.0000049000    0.0000762500
   0.0000109700   -0.0000007000    0.0000412300
   0.0000040100   -0.0000001200    0.0000475800
  -0.0000066800   -0.0000042100    0.0000438400
   0.0000057600   -0.0000009600    0.0000240300
   0.0000030300   -0.0000061000    0.0000314400
  -0.0000076700    0.0000031200    0.0000447600
   0.0000072300   -0.0000018000    0.0000274300
   0.0000008200    0.0000049000    0.0000292500
  -0.0001174200    0.0000662100    0.0002664400
   0.0000501500    0.0000044800    0.0000366100
  -0.0000049100   -0.0000029300   -0.0000149800
  -0.0000158500    0.0000485200    0.0000228200
   0.0000156900    0.0000157500    0.0000146400
  -0.0000029500    0.0000032300   -0.0000023800
  -0.0000184200   -0.0000695900    0.0000212000
   0.0000231700   -0.0000279600    0.0000222300
  -0.0000024900   -0.0000008300   -0.0000024900
  -0.0001885500    0.0000666400    0.0002662600
   0.0000031100   -0.0000114300   -0.0000335400
   0.0001206400   -0.0000093400    0.0000774800
  -0.0000354700   -0.0000266800    0.0000075200
   0.0000051800   -0.0000018000   -0.0000014900
   0.0000344500   -0.0000256500    0.0000246000
  -0.0000278700    0.0000281800    0.0000145800
   0.0000031600    0.0000005000   -0.0000048900
   0.0000213400    0.0000165900    0.0000136000
   0.0000452200   -0.0003765900   -0.0002378100
   0.0001216000    0.0003009000   -0.0001661600
   0.0000475400    0.0000010400   -0.0000399500
  -0.0000140100   -0.0000117800   -0.0000501300
  -0.0000030900   -0.0000007300   -0.0000394600
   0.0000166400   -0.0000001900   -0.0000260200
   0.0000526300    0.0003693300   -0.0002444400
   0.0001291700   -0.0002936800   -0.0001728700
   0.0000586400    0.0000118600   -0.0000498900
  -0.0000041300   -0.0000007900    0.0000573800
  -0.0000083100    0.0000046400    0.0000541500
   0.0000131200    0.0000032700    0.0000300000
  -0.0000033800   -0.0000025500    0.0000310700
  -0.0000049200   -0.0000025200    0.0000298100
   0.0000074000    0.0000000700    0.0000199100
  -0.0000046200    0.0000015500    0.0000581400
  -0.0000091600   -0.0000052800    0.0000547400
   0.0000131000    0.0000017900    0.0000305900
  -0.0000862000    0.0000303700    0.0000349800
   0.0000870500    0.0000855300    0.0001451100
   0.0000262800    0.0000094700    0.0000070100
  -0.0000166700   -0.0000045600    0.0000023700
   0.0000039400   -0.0000035300    0.0000125100
   0.0000121600   -0.0000002400    0.0000030700
  -0.0000905500   -0.0000242400    0.0000290500
   0.0001015900   -0.0000917800    0.0001389200
   0.0000354500   -0.0000018500    0.0000079800
   0.0000594200   -0.0001577600    0.0001710000
  -0.0000475900   -0.0000254800   -0.0000018500
   0.0000305300   -0.0000053900    0.0000030900
  -0.0000009100   -0.0000094100    0.0000171500
  -0.0000117100   -0.0000002400   -0.0000023200
   0.0000119300    0.0000001300    0.0000031100
   0.0000625300    0.0001516500    0.0001754400
  -0.0000632700    0.0000311300    0.0000032100
   0.0000315000    0.0000152300    0.0000118300
   0.0019135400    0.0003328100    0.0014446100
  -0.0009173700   -0.0002455100   -0.0017890000
   0.0002345300   -0.0000511300   -0.0000590800
   0.0000261500   -0.0002430600   -0.0000532900
  -0.0000608100    0.0000174200   -0.0000921000
   0.0000801400   -0.0000404800   -0.0000361400
   0.0000210000    0.0001677400   -0.0000553100
  -0.0001042300    0.0000152300   -0.0001141500
   0.0000782900    0.0000153800   -0.0000384600
  -0.0000745100    0.0000245700    0.0001606500
   0.0000228500   -0.0000002500    0.0003338800
   0.0000410700   -0.0000049500    0.0000626900
  -0.0000364000    0.0000302800    0.0000659700
   0.0000188500    0.0000368000    0.0000884200
   0.0000255500    0.0000054800    0.0000384700
  -0.0000650900   -0.0000308000    0.0000589600
   0.0000061000   -0.0000525600    0.0001094700
   0.0000293100   -0.0000207200    0.0000405500
  -0.0005644600    0.0011484600   -0.0001232800
   0.0001900200    0.0001331400   -0.0000141800
   0.0000331600   -0.0000050100   -0.0001534700
  -0.0000787200   -0.0000282500   -0.0000611200
   0.0000635200   -0.0000063600   -0.0000278400
   0.0000077300   -0.0000046900   -0.0000507000
  -0.0011409500   -0.0016882300   -0.0002282800
   0.0002915400   -0.0001354700   -0.0000183200
   0.0000392400    0.0000513500   -0.0001373800
  -0.0000375700   -0.0000475700    0.0002682200
  -0.0000068100   -0.0000243400    0.0000147800
   0.0000744000   -0.0000259900    0.0001439300
  -0.0000277800   -0.0000111800    0.0000605900
   0.0000044300    0.0000003600    0.0000262800
   0.0000306900   -0.0000034000    0.0000486700
  -0.0000623400    0.0000494600    0.0002226600
  -0.0000083200    0.0000166300    0.0000273800
   0.0000608300    0.0000595500    0.0001282600
   0.0005478000   -0.0008166900    0.0021516700
  -0.0000464100    0.0004960200    0.0002782900
  -0.0000047900    0.0006292900    0.0000070700
   0.0001002300    0.0007546300    0.0000159600
   0.0000225800    0.0006163100    0.0000178800
   0.0000044100    0.0006425300    0.0000086900
   0.0000183600    0.0005311600    0.0000332100
   0.0000475300    0.0006706600    0.0000181700
   0.0000102800    0.0006016300    0.0000085500
   0.0000471000    0.0006237700   -0.0000469500
  -0.0000098500    0.0005981100   -0.0000633500
   0.0000074400    0.0006268700   -0.0000141600
   0.0000258500    0.0006255600   -0.0000166300
   0.0000157000    0.0006227000   -0.0000170200
   0.0000140800    0.0006269000   -0.0000088100
   0.0000576800    0.0006592500   -0.0000293700
   0.0000208900    0.0006447400   -0.0000205000
   0.0000076400    0.0006298600   -0.0000085900
  -0.0000217800   -0.0006431100    0.0000241700
  -0.0000421900   -0.0006197500    0.0000115800
  -0.0000220900   -0.0005410000    0.0000136900
  -0.0000207500   -0.0006634300    0.0000234400
  -0.0000317600   -0.0006269300    0.0000113400
  -0.0000385900   -0.0006620700    0.0000125800
  -0.0001933400    0.0001382200    0.0012083000
  -0.0000677000   -0.0006201500    0.0000247100
  -0.0001388800   -0.0007491000   -0.0001445900
  -0.0000317600   -0.0006498100   -0.0000244300
  -0.0000273000   -0.0006366900   -0.0000113200
  -0.0000101000   -0.0006340900   -0.0000125400
  -0.0000128600   -0.0006125500   -0.0000223800
  -0.0000248600   -0.0006240800   -0.0000107900
  -0.0000115300   -0.0006251800   -0.0000124300
  -0.0000281400   -0.0006156500   -0.0000644300
  -0.0000316800   -0.0006318700   -0.0000180600
   0.0000044500   -0.0006219400   -0.0000307800
  -0.0003773300   -0.0000382000    0.0001601400
  -0.0007333500    0.0000668600    0.0000106800
  -0.0010318100    0.0001630600   -0.0001453600
  -0.0005936700    0.0000122100    0.0000187900
  -0.0006461200    0.0000274100    0.0000084300
  -0.0006208000    0.0000384800    0.0000133200
  -0.0005607800    0.0000775400    0.0000314100
  -0.0006606600    0.0000267900    0.0000131300
  -0.0006613200   -0.0000363100    0.0000151700
  -0.0006143200    0.0000123800   -0.0000607800
  -0.0006514200    0.0000253200   -0.0000128200
  -0.0006081700    0.0000097300   -0.0000289000
  -0.0006263300    0.0000098600   -0.0000176500
  -0.0006379500    0.0000198500   -0.0000081500
  -0.0006228800    0.0000156700   -0.0000145900
  -0.0006318200    0.0000417700   -0.0000328500
  -0.0006472000    0.0000312200   -0.0000129700
  -0.0006131600    0.0000180500   -0.0000172500
   0.0005769100   -0.0001150300    0.0000031900
   0.0006573000   -0.0000106600    0.0000365500
   0.0005763400   -0.0000077500    0.0000098200
   0.0006252200   -0.0000513500    0.0000119000
   0.0006324800   -0.0000058400    0.0000244000
   0.0006051700   -0.0000244400    0.0000090700
   0.0004178600   -0.0001893600   -0.0004987000
   0.0007524700    0.0000122900    0.0002614700
   0.0005071200   -0.0000030300    0.0000131800
   0.0006513700   -0.0000371400   -0.0000236200
   0.0006175500   -0.0000297000   -0.0000299500
   0.0006211800   -0.0000164900   -0.0000101500
   0.0006419100   -0.0000132800   -0.0000121500
   0.0006198400   -0.0000071300   -0.0000226900
   0.0006221800   -0.0000148800   -0.0000088500
   0.0006608100   -0.0000389200   -0.0000354800
   0.0005954900   -0.0000044000   -0.0000585100
   0.0006206500   -0.0000134600   -0.0000125200
   0.0000328200    0.0004962100    0.0000465400
  -0.0000723800    0.0005563600    0.0000091700
  -0.0000375600    0.0006412800    0.0000309400
   0.0000098400    0.0006284200    0.0000139000
  -0.0000316600    0.0006500800    0.0000077700
  -0.0000199200    0.0006310900    0.0000099100
   0.0002533700    0.0006371400    0.0000529000
   0.0000071500    0.0007311300   -0.0000205900
  -0.0000269900    0.0006464500    0.0000246600
  -0.0000173300    0.0006556100   -0.0000456000
  -0.0000192500    0.0006295800   -0.0000104000
  -0.0000407200    0.0006432600   -0.0000292700
  -0.0000124000    0.0006206200   -0.0000147600
  -0.0000213000    0.0006264700   -0.0000083700
  -0.0000258500    0.0006258900   -0.0000098500
   0.0000160800    0.0006048000   -0.0000527600
  -0.0000156000    0.0006184100   -0.0000135500
  -0.0000371100    0.0006242400   -0.0000221900
   0.0001824700   -0.0010799500   -0.0003896600
  -0.0000134500   -0.0006456400    0.0000057800
  -0.0001077300   -0.0006424600    0.0000552500
   0.0000172800   -0.0006423900    0.0000098300
   0.0000054400   -0.0006286400    0.0000072900
   0.0000109300   -0.0006238000    0.0000150100
  -0.0000406500   -0.0002293100    0.0000694200
  -0.0000046300   -0.0006165800    0.0000065700
   0.0000307800   -0.0006359600    0.0000423500
   0.0000421300   -0.0006311900   -0.0000436600
   0.0000170600   -0.0006184900   -0.0000078200
  -0.0000170700   -0.0006092500   -0.0000430900
   0.0000260400   -0.0006183400   -0.0000107800
   0.0000166800   -0.0006250200   -0.0000073700
   0.0000081200   -0.0006161800   -0.0000150000
   0.0000457300   -0.0006516600   -0.0000421800
   0.0000137800   -0.0006250100   -0.0000082500
   0.0000101700   -0.0006506300   -0.0000370300
   0.0006779100   -0.0000465800    0.0000877400
   0.0005838200   -0.0000062900    0.0000022300
   0.0006355800    0.0000171500    0.0000276900
   0.0006556100    0.0000027200    0.0000160000
   0.0006064000    0.0000206300    0.0000065600
   0.0006378100    0.0000163300    0.0000130900
   0.0025634800   -0.0005018700    0.0026191000
   0.0004746800   -0.0000367200    0.0000009900
   0.0006647800   -0.0000461900    0.0000620900
   0.0006674000    0.0000562900   -0.0000574000
   0.0006135800    0.0000138800   -0.0000030500
   0.0006150700    0.0000257600   -0.0000261200
   0.0006368600    0.0000246300   -0.0000161700
   0.0006216500    0.0000173100   -0.0000068700
   0.0006201200    0.0000209300   -0.0000132000
   0.0006604700    0.0000141800   -0.0000518900
   0.0006151100    0.0000132100   -0.0000087000
   0.0005957900   -0.0000191500   -0.0000416000
  -0.0009636300    0.0002161000    0.0008474300
  -0.0006722100   -0.0000833200   -0.0000048600
  -0.0006183900    0.0000069100    0.0000383200
  -0.0006060700   -0.0000116900    0.0000156100
  -0.0006518900   -0.0000084900    0.0000068400
  -0.0006351800   -0.0000203600    0.0000132200
  -0.0005885800   -0.0000312500    0.0000464800
  -0.0006640700    0.0000094500    0.0000039700
  -0.0006487300   -0.0000222700    0.0000280100
  -0.0006111400    0.0000120700   -0.0000596100
  -0.0006062500   -0.0000070500   -0.0000123200
  -0.0006578200   -0.0000252100   -0.0000305500
  -0.0006153900   -0.0000135500   -0.0000162600
  -0.0006243500   -0.0000213900   -0.0000069700
  -0.0006383900   -0.0000210000   -0.0000129900
  -0.0006236000   -0.0000353400   -0.0000370600
  -0.0006171200   -0.0000206100   -0.0000071700
  -0.0006495300   -0.0000360900   -0.0000266200
   0.0008886800   -0.0000631900   -0.0005932500
   0.0013255900   -0.0000232500    0.0010072800
  -0.0000652100    0.0000043000   -0.0000686300
  -0.0000022800    0.0000533500   -0.0000029900
   0.0000100600   -0.0000167400   -0.0000729000
  -0.0000155400    0.0000044100   -0.0001057100
   0.0000036100   -0.0000345700   -0.0000627500
   0.0000183500    0.0000051700   -0.0000307200
  -0.0000161500   -0.0000031900   -0.0001030500
   0.0000156600   -0.0000038900   -0.0002187600
  -0.0000059900   -0.0000012500   -0.0002085600
  -0.0000084900   -0.0000001900   -0.0001856300
   0.0000069200   -0.0000053700   -0.0001934300
  -0.0000034900   -0.0000065800   -0.0001898400
  -0.0000057200   -0.0000013700   -0.0001743500
   0.0000128700    0.0000054900   -0.0001950700
  -0.0000019800    0.0000101500   -0.0001905000
  -0.0000062800    0.0000030600   -0.0001748900
   0.0000205500   -0.0000071200    0.0000840900
  -0.0000032100    0.0000074900   -0.0000544800
  -0.0000101700   -0.0000000200    0.0001310200
   0.0000082800   -0.0000049200    0.0001321400
  -0.0000035700   -0.0000155100    0.0001129700
  -0.0000054200   -0.0000019000    0.0001385400
   0.0000125500    0.0000096500    0.0001344800
  -0.0000015700    0.0000115700    0.0000954900
  -0.0000076800    0.0000028300    0.0001366600
  -0.0002027500   -0.0000539400   -0.0000848700
   0.0001251000    0.0000404400    0.0000568900
  -0.0000425400    0.0000018500    0.0001192000
  -0.0000045500    0.0000422400    0.0000638900
   0.0000110600   -0.0000008700    0.0001519000
  -0.0000156200    0.0000049600    0.0001377200
   0.0000031500   -0.0000318500    0.0001179200
   0.0000148000   -0.0000020400    0.0001294800
  -0.0000145800   -0.0000029000    0.0001377800
   0.0002073800   -0.0001441100    0.0004927300
  -0.0000436800   -0.0000295100    0.0001823700
  -0.0000139700    0.0000168200    0.0003016800
   0.0000135500    0.0000028200    0.0002210600
  -0.0000097600    0.0000019000    0.0001824400
  -0.0000021600    0.0000024900    0.0001882900
   0.0002486500    0.0002486000    0.0005038100
  -0.0000621300    0.0000373300    0.0002441000
  -0.0000258300   -0.0000231500    0.0002614300
   0.0000115800    0.0000111800    0.0000776600
   0.0000003200    0.0000042700    0.0000994900
  -0.0000145600    0.0000065000    0.0000960900
   0.0000068500    0.0000021300    0.0001040700
  -0.0000009400    0.0000002800    0.0001168200
  -0.0000053200    0.0000008500    0.0001134100
   0.0000142400   -0.0000103800    0.0000743600
   0.0000009400   -0.0000024200    0.0000994200
  -0.0000116900   -0.0000121300    0.0000951300
   0.0000971900   -0.0001011800   -0.0002426100
  -0.0000390300   -0.0000239200   -0.0001754200
  -0.0000084600    0.0000051900   -0.0001545000
   0.0000128300    0.0000056500   -0.0001671400
  -0.0000099600    0.0000017700   -0.0001558600
  -0.0000020200    0.0000007200   -0.0001413800
   0.0001906200    0.0002269200   -0.0003584000
  -0.0000528000    0.0000245700   -0.0002248800
  -0.0000079900   -0.0000160600   -0.0001273800
   0.0000062600    0.0000054800   -0.0002935000
   0.0000042000    0.0000047800   -0.0001159400
  -0.0000161900    0.0000081400   -0.0002207500
   0.0000057400   -0.0000002000   -0.0001553200
  -0.0000011200    0.0000002400   -0.0001407100
  -0.0000058600    0.0000024900   -0.0001568100
   0.0000208200   -0.0000180300   -0.0002499600
   0.0000002900   -0.0000016600   -0.0001242100
  -0.0000208900   -0.0000114000   -0.0002092000

1    
 -0.0068682392178525   0.0000000000000000  -0.0072682384417652
   0.0048671400   -0.0019338800    0.0068654900
  -0.0002166200    0.0000014100    0.0000348200
  -0.0003046300    0.0000096500    0.0001183900
   0.0000400500   -0.0000389500    0.0000728200
  -0.0000154900   -0.0000167900    0.0000377300
  -0.0000292500    0.0000195200    0.0000535800
   0.0000316200    0.0000499000    0.0000805200
  -0.0000200100    0.0000288400    0.0000446200
  -0.0000182800   -0.0000138800    0.0000405000
   0.0000157200   -0.0000052500   -0.0000761900
  -0.0000111400    0.0000012400   -0.0000412200
  -0.0000040400    0.0000003600   -0.0000480300
   0.0000071600    0.0000040200   -0.0000444200
  -0.0000062400    0.0000005900   -0.0000239600
  -0.0000034100    0.0000059400   -0.0000314000
   0.0000076700   -0.0000027900   -0.0000450600
  -0.0000075300    0.0000019000   -0.0000274800
  -0.0000003700   -0.0000044800   -0.0000291300
   0.0001158600   -0.0000667500   -0.0002664400
  -0.0000498200   -0.0000048200   -0.0000368700
   0.0000044400    0.0000025300    0.0000149200
   0.0000166500   -0.0000480600   -0.0000229400
  -0.0000153900   -0.0000155400   -0.0000147400
   0.0000028200   -0.0000027700    0.0000022100
   0.0000180700    0.0000693300   -0.0000210000
  -0.0000229300    0.0000284100   -0.0000223200
   0.0000025000    0.0000002300    0.0000021900
   0.0001900200   -0.0000664100   -0.0002666300
  -0.0000031500    0.0000115800    0.0000337900
  -0.0001211900    0.0000098500   -0.0000778300
   0.0000353700    0.0000260900   -0.0000073700
  -0.0000053200    0.0000012800    0.0000014900
  -0.0000344700    0.0000255400   -0.0000247100
   0.0000281300   -0.0000283600   -0.0000142200
  -0.0000033400   -0.0000002400    0.0000047500
  -0.0000214600   -0.0000164200   -0.0000139300
  -0.0000449300    0.0003779300    0.0002389300
  -0.0001222800   -0.0002998500    0.0001652300
  -0.0000482700   -0.0000007800    0.0000400700
   0.0000137600    0.0000118900    0.0000504800
   0.0000026400    0.0000013300    0.0000400700
  -0.0000164800   -0.0000001800    0.0000259500
  -0.0000520500   -0.0003706900    0.0002460200
  -0.0001293100    0.0002925500    0.0001722900
  -0.0000587200   -0.0000121100    0.0000502800
   0.0000045900    0.0000009400   -0.0000576900
   0.0000082100   -0.0000047800   -0.0000538000
  -0.0000131600   -0.0000031700   -0.0000303300
   0.0000036300    0.0000022500   -0.0000306900
   0.0000048800    0.0000027800   -0.0000294900
  -0.0000074400   -0.0000000600   -0.0000201100
   0.0000053300   -0.0000015100   -0.0000581200
   0.0000086500    0.0000054600   -0.0000543600
  -0.0000128500   -0.0000020200   -0.0000301900
   0.0000866000   -0.0000306600   -0.0000355400
  -0.0000867700   -0.0000854700   -0.0001446500
  -0.0000262400   -0.0000090600   -0.0000070800
   0.0000166000    0.0000037200   -0.0000021300
  -0.0000039600    0.0000031400   -0.0000127400
  -0.0000118200   -0.0000002300   -0.0000030500
   0.0000908200    0.0000243200   -0.0000297200
  -0.0001020500    0.0000917600   -0.0001389900
  -0.0000355200    0.0000017300   -0.0000077200
  -0.0000591000    0.0001573100   -0.0001711000
   0.0000467900    0.0000253300    0.0000018500
  -0.0000303600    0.0000053600   -0.0000030600
   0.0000007000    0.0000095800   -0.0000171000
   0.0000119100    0.0000003400    0.0000022400
  -0.0000121200    0.0000000600   -0.0000028700
  -0.0000627200   -0.0001526500   -0.0001766700
   0.0000626500   -0.0000304900   -0.0000032200
  -0.0000310500   -0.0000152400   -0.0000117600
  -0.0019277000   -0.0003322000   -0.0014485300
   0.0009097000    0.0002442300    0.0017886800
  -0.0002363900    0.0000497000    0.0000613100
  -0.0000270700    0.0002421100    0.0000559100
   0.0000594000   -0.0000193000    0.0000943300
  -0.0000814000    0.0000389500    0.0000383700
  -0.0000219900   -0.0001703100    0.0000578200
   0.0001027200   -0.0000163400    0.0001160500
  -0.0000797500   -0.0000170100    0.0000405500
   0.0000732500   -0.0000261900   -0.0001595300
  -0.0000238400   -0.0000013000   -0.0003316600
  -0.0000421300    0.0000034000   -0.0000605600
   0.0000353200   -0.0000320000   -0.0000640900
  -0.0000200200   -0.0000383000   -0.0000863600
  -0.0000266600   -0.0000072100   -0.0000363400
   0.0000638600    0.0000291300   -0.0000571600
  -0.0000073000    0.0000507700   -0.0001073300
  -0.0000304000    0.0000191700   -0.0000385700
   0.0005570500   -0.0011472400    0.0001148300
  -0.0001880000   -0.0001328200    0.0000120800
  -0.0000312100    0.0000059500    0.0001516000
   0.0000799800    0.0000286100    0.0000591900
  -0.0000619000    0.0000068500    0.0000259100
  -0.0000058700    0.0000051500    0.0000488800
   0.0011353300    0.0016832400    0.0002190200
  -0.0002894700    0.0001357200    0.0000160800
  -0.0000374200   -0.0000513900    0.0001358100
   0.0000394000    0.0000481500   -0.0002703500
   0.0000083300    0.0000246600   -0.0000170200
  -0.0000727800    0.0000265800   -0.0001463100
   0.0000295800    0.0000115400   -0.0000626100
  -0.0000027500    0.0000000500   -0.0000283400
  -0.0000290400    0.0000038500   -0.0000507400
   0.0000643400   -0.0000490900   -0.0002246100
   0.0000099600   -0.0000160000   -0.0000292600
  -0.0000592200   -0.0000593300   -0.0001307800
  -0.0005496600    0.0021304600   -0.0022492900
   0.0000855300    0.0007595600   -0.0002775400
   0.0000443200    0.0006265200   -0.0000069400
  -0.0000609900    0.0005009600   -0.0000159300
   0.0000168200    0.0006394400   -0.0000177400
   0.0000349300    0.0006132300   -0.0000086000
   0.0000209500    0.0007250700   -0.0000331600
  -0.0000080100    0.0005851400   -0.0000180000
   0.0000290400    0.0006542300   -0.0000084000
  -0.0000076600    0.0006319800    0.0000470700
   0.0000492600    0.0006576400    0.0000635100
   0.0000319000    0.0006288500    0.0000142600
   0.0000136100    0.0006301600    0.0000168400
   0.0000236700    0.0006330500    0.0000171400
   0.0000253000    0.0006288500    0.0000089500
  -0.0000182400    0.0005966100    0.0000295100
   0.0000186200    0.0006110000    0.0000207100
   0.0000316600    0.0006259000    0.0000087800
  -0.0000155800   -0.0006115500   -0.0000241900
   0.0000047100   -0.0006350500   -0.0000115400
  -0.0000154400   -0.0007144500   -0.0000137000
  -0.0000168600   -0.0005916200   -0.0000233700
  -0.0000056000   -0.0006278600   -0.0000111800
   0.0000012000   -0.0005925600   -0.0000125800
   0.0001657400   -0.0013976100   -0.0012139200
   0.0000304100   -0.0006347100   -0.0000246500
   0.0001017400   -0.0005059600    0.0001444400
  -0.0000057600   -0.0006049900    0.0000244700
  -0.0000101500   -0.0006181500    0.0000113700
  -0.0000273200   -0.0006207200    0.0000126100
  -0.0000245000   -0.0006423000    0.0000225500
  -0.0000126500   -0.0006306900    0.0000108900
  -0.0000258900   -0.0006296400    0.0000126200
  -0.0000094300   -0.0006391700    0.0000645100
  -0.0000057900   -0.0006229500    0.0000181100
  -0.0000419300   -0.0006329500    0.0000310100
  -0.0008770700    0.0000772000   -0.0001616900
  -0.0005221100   -0.0000279300   -0.0000106700
  -0.0002220800   -0.0001243500    0.0001460300
  -0.0006619400    0.0000267500   -0.0000186400
  -0.0006094100    0.0000114700   -0.0000082900
  -0.0006349300    0.0000004300   -0.0000132700
  -0.0006945600   -0.0000384400   -0.0000313700
  -0.0005946900    0.0000120600   -0.0000130200
  -0.0005941100    0.0000757600   -0.0000151400
  -0.0006412300    0.0000265600    0.0000608200
  -0.0006041400    0.0000136100    0.0000128700
  -0.0006473500    0.0000293600    0.0000292400
  -0.0006291800    0.0000290400    0.0000177900
  -0.0006176100    0.0000191200    0.0000082600
  -0.0006327400    0.0000233700    0.0000147600
  -0.0006236300   -0.0000026600    0.0000329800
  -0.0006083600    0.0000077100    0.0000131300
  -0.0006423900    0.0000209500    0.0000174800
   0.0006783800    0.0000771300   -0.0000033700
   0.0005978900   -0.0000271400   -0.0000364300
   0.0006787300   -0.0000301000   -0.0000097500
   0.0006296900    0.0000135900   -0.0000118000
   0.0006225500   -0.0000320300   -0.0000242400
   0.0006498500   -0.0000134900   -0.0000089100
   0.0008389100    0.0001498200    0.0004990600
   0.0005025300   -0.0000500000   -0.0002607300
   0.0007484900   -0.0000350400   -0.0000131300
   0.0006035100   -0.0000007200    0.0000237000
   0.0006374400   -0.0000082000    0.0000300200
   0.0006338400   -0.0000213400    0.0000102300
   0.0006130500   -0.0000246000    0.0000123300
   0.0006351200   -0.0000307700    0.0000228700
   0.0006327900   -0.0000230300    0.0000089600
   0.0005942600    0.0000010300    0.0000356700
   0.0006595200   -0.0000333900    0.0000586200
   0.0006342600   -0.0000244900    0.0000126200
  -0.0000724800    0.0007604600   -0.0000458100
   0.0000331000    0.0006990000   -0.0000092000
  -0.0000015000    0.0006141900   -0.0000310400
  -0.0000487200    0.0006270100   -0.0000140300
  -0.0000072500    0.0006054300   -0.0000078700
  -0.0000190600    0.0006244600   -0.0000100800
  -0.0002918300    0.0006175400   -0.0000507900
  -0.0000464900    0.0005246700    0.0000208100
  -0.0000119200    0.0006091100   -0.0000248300
  -0.0000216700    0.0005998300    0.0000454000
  -0.0000196400    0.0006259600    0.0000102800
   0.0000017700    0.0006122500    0.0000292600
  -0.0000266500    0.0006349900    0.0000146400
  -0.0000176100    0.0006290600    0.0000082000
  -0.0000131200    0.0006297300    0.0000097500
  -0.0000552400    0.0006508600    0.0000527300
  -0.0000233100    0.0006371100    0.0000133300
  -0.0000019000    0.0006312900    0.0000221400
  -0.0001406500   -0.0001772600    0.0003900400
   0.0000506900   -0.0006087200   -0.0000058500
   0.0001455300   -0.0006122000   -0.0000555700
   0.0000201100   -0.0006120900   -0.0000099100
   0.0000318300   -0.0006257600   -0.0000074200
   0.0000263400   -0.0006305400   -0.0000151000
   0.0000777500   -0.0010232500   -0.0000690200
   0.0000418800   -0.0006378900   -0.0000066900
   0.0000063400   -0.0006183700   -0.0000425900
  -0.0000048600   -0.0006232400    0.0000435700
   0.0000202800   -0.0006359000    0.0000077800
   0.0000545800   -0.0006451600    0.0000431500
   0.0000111000   -0.0006360900    0.0000106500
   0.0000206000   -0.0006293900    0.0000072400
   0.0000291700   -0.0006382400    0.0000149300
  -0.0000085500   -0.0006027100    0.0000420900
   0.0000235100   -0.0006293600    0.0000081200
   0.0000270400   -0.0006036500    0.0000370100
   0.0005774900    0.0000831900   -0.0000869600
   0.0006708600    0.0000434500   -0.0000022900
   0.0006189800    0.0000199100   -0.0000277900
   0.0005993100    0.0000345700   -0.0000160900
   0.0006483700    0.0000166600   -0.0000066800
   0.0006169400    0.0000210100   -0.0000132500
  -0.0012533000    0.0004866700   -0.0025128300
   0.0007800800    0.0000739800   -0.0000009800
   0.0005906800    0.0000837600   -0.0000624300
   0.0005873300   -0.0000188800    0.0000573300
   0.0006412500    0.0000233900    0.0000030200
   0.0006396900    0.0000114600    0.0000261500
   0.0006178900    0.0000127400    0.0000160500
   0.0006332000    0.0000199500    0.0000067700
   0.0006346500    0.0000164800    0.0000131300
   0.0005941600    0.0000230500    0.0000518400
   0.0006397800    0.0000239800    0.0000086200
   0.0006591100    0.0000566100    0.0000416800
  -0.0002961100   -0.0002507600   -0.0008439500
  -0.0005825300    0.0000444100    0.0000048600
  -0.0006369400   -0.0000460700   -0.0000384100
  -0.0006490700   -0.0000274300   -0.0000156800
  -0.0006032900   -0.0000305100   -0.0000069200
  -0.0006200300   -0.0000186500   -0.0000133700
  -0.0006670600   -0.0000086200   -0.0000456600
  -0.0005912000   -0.0000486300   -0.0000041300
  -0.0006065200   -0.0000167700   -0.0000282700
  -0.0006442300   -0.0000511000    0.0000595900
  -0.0006488400   -0.0000318100    0.0000121800
  -0.0005972700   -0.0000137400    0.0000305000
  -0.0006398200   -0.0000255100    0.0000161200
  -0.0006308100   -0.0000175900    0.0000067700
  -0.0006167600   -0.0000179800    0.0000128200
  -0.0006316500   -0.0000036900    0.0000368300
  -0.0006380800   -0.0000184900    0.0000069300
  -0.0006055400   -0.0000028900    0.0000265100
  -0.0009392900    0.0000642400    0.0003056100
  -0.0012789400    0.0000222800   -0.0012990800
   0.0000652500   -0.0000044200   -0.0002214500
   0.0000020900   -0.0000535500   -0.0002874300
  -0.0000100100    0.0000167500   -0.0002170000
   0.0000155000   -0.0000045400   -0.0001843800
  -0.0000037400    0.0000345700   -0.0002275200
  -0.0000182700   -0.0000053900   -0.0002590000
   0.0000160800    0.0000030600   -0.0001869000
  -0.0000156600    0.0000037400   -0.0000710000
   0.0000059500    0.0000010800   -0.0000814600
   0.0000084100    0.0000000200   -0.0001042600
  -0.0000070300    0.0000052300   -0.0000965000
   0.0000034500    0.0000064500   -0.0001001100
   0.0000056700    0.0000012300   -0.0001155800
  -0.0000129000   -0.0000055900   -0.0000948200
   0.0000019300   -0.0000102500   -0.0000994600
   0.0000062300   -0.0000031400   -0.0001150200
  -0.0000204900    0.0000070000    0.0002030800
   0.0000030400   -0.0000075300    0.0003410500
   0.0000100900   -0.0000000600    0.0001554600
  -0.0000083000    0.0000047700    0.0001544900
   0.0000035700    0.0000153700    0.0001736600
   0.0000053700    0.0000017600    0.0001479500
  -0.0000126500   -0.0000097800    0.0001522300
   0.0000015700   -0.0000116900    0.0001910000
   0.0000075900   -0.0000029300    0.0001499000
   0.0002031700    0.0000529800    0.0003718100
  -0.0001244900   -0.0000404000    0.0002293200
   0.0000426400   -0.0000019400    0.0001673000
   0.0000045100   -0.0000424600    0.0002227200
  -0.0000110600    0.0000008000    0.0001344000
   0.0000156500   -0.0000051300    0.0001486400
  -0.0000032900    0.0000319000    0.0001685300
  -0.0000148000    0.0000019000    0.0001570400
   0.0000146200    0.0000028200    0.0001488000
  -0.0002068400    0.0001403300   -0.0001999600
   0.0000438500    0.0000295700    0.0001076400
   0.0000141300   -0.0000168500   -0.0000120600
  -0.0000133500   -0.0000027200    0.0000686600
   0.0000099300   -0.0000018200    0.0001074300
   0.0000023000   -0.0000024200    0.0001015400
  -0.0002474700   -0.0002439100   -0.0002104200
   0.0000623100   -0.0000373800    0.0000458300
   0.0000260500    0.0000231700    0.0000281000