243  
4    

1    
  0.0070710678032752   0.0000000008135523  -0.0070710678204557
  -0.0488764100   -0.0000000000    0.0077468000
  -0.0141842800   -0.0000858600   -0.0000574700
  -0.0141690700   -0.0000717200   -0.0000434800
  -0.0135607300   -0.0000000000   -0.0002014900
  -0.0140060100   -0.0000012500   -0.0000054100
  -0.0136202900    0.0002275600    0.0000112500
  -0.0133979500   -0.0000000000   -0.0000351700
  -0.0136223000    0.0000594200    0.0000111700
  -0.0140131200    0.0000060000   -0.0000127400
  -0.0136202900   -0.0002275600    0.0000112500
  -0.0140278000   -0.0000087400    0.0000019400
  -0.0136822200   -0.0000000000    0.0002506200
  -0.0140131200   -0.0000060000   -0.0000127400
  -0.0140205700    0.0000159200    0.0000093100
  -0.0140112400   -0.0000000000   -0.0000004600
  -0.0141690700    0.0000717200   -0.0000434800
  -0.0140481600    0.0000084000    0.0000002300
  -0.0140563200   -0.0000000000   -0.0000178800
  -0.0136223000   -0.0000594200    0.0000111700
  -0.0138472300   -0.0000000000    0.0000841000
  -0.0140205700   -0.0000159300    0.0000093100
  -0.0141842800    0.0000858600   -0.0000574700
  -0.0140398300   -0.0000000000   -0.0000010100
  -0.0140481600   -0.0000084100    0.0000002300
  -0.0140060100    0.0000012500   -0.0000054100
  -0.0140110800   -0.0000000000   -0.0000005900
  -0.0140278000    0.0000087400    0.0000019400
   0.0142370300    0.0000000000    0.0000226800
   0.0140869100    0.0000021400   -0.0000056900
   0.0140792400    0.0000095700    0.0000018000
   0.0140574100    0.0000000000   -0.0000147200
   0.0140776400    0.0000397400   -0.0000237700
   0.0140513200    0.0000060700   -0.0000004800
   0.0137646900    0.0000000000    0.0001537000
   0.0138889900   -0.0001236400    0.0000567900
   0.0140301400   -0.0000096900    0.0000046100
   0.0140513200   -0.0000060700   -0.0000004800
   0.0140389500    0.0000006500    0.0000152700
   0.0140451900    0.0000000000   -0.0000024900
   0.0140301400    0.0000096900    0.0000046100
   0.0140421100   -0.0000025000   -0.0000074700
   0.0140646800    0.0000000000   -0.0000008500
   0.0140792400   -0.0000095700    0.0000018000
   0.0140679800   -0.0000169500    0.0000064800
   0.0140511300    0.0000000000    0.0000220400
   0.0138889900    0.0001236400    0.0000567900
   0.0140144600    0.0000000000   -0.0000915000
   0.0140421100    0.0000025000   -0.0000074700
   0.0140869100   -0.0000021400   -0.0000056900
   0.0140848300    0.0000000000   -0.0000117200
   0.0140679800    0.0000169600    0.0000064800
   0.0140776400   -0.0000397400   -0.0000237700
   0.0153254700    0.0000000000    0.0002251500
   0.0140389500   -0.0000006500    0.0000152700
   0.0009819800    0.0000000000   -0.0157155700
   0.0000075400    0.0000100800   -0.0140660100
  -0.0000434400    0.0000696600   -0.0138401900
   0.0000986500    0.0000000000   -0.0142517700
   0.0000440200    0.0000246900   -0.0140546900
   0.0000005300    0.0000049200   -0.0140729500
   0.0046893400    0.0000000000   -0.0180803300
  -0.0000564200   -0.0000770500   -0.0138555600
  -0.0000134700   -0.0000612300   -0.0141115600
   0.0000005300   -0.0000049200   -0.0140729500
   0.0000075500    0.0000131200   -0.0140169300
   0.0000397200    0.0000000000   -0.0140329200
  -0.0000134700    0.0000612300   -0.0141115600
   0.0000008300    0.0000055200   -0.0140583900
  -0.0000013500    0.0000000000   -0.0140593800
  -0.0000434400   -0.0000696600   -0.0138401900
  -0.0000011900   -0.0000092600   -0.0140420500
  -0.0000620400    0.0000000000   -0.0140792300
  -0.0000564200    0.0000770600   -0.0138555600
   0.0000119300    0.0000000000   -0.0140607600
   0.0000008300   -0.0000055200   -0.0140583900
   0.0000075400   -0.0000100800   -0.0140660100
   0.0000080700    0.0000000000   -0.0140500400
  -0.0000011900    0.0000092600   -0.0140420500
   0.0000440200   -0.0000246900   -0.0140546900
   0.0000025200    0.0000000000   -0.0140145900
   0.0000075500   -0.0000131200   -0.0140169300
  -0.0006716800   -0.0000000000    0.0153821800
   0.0000015100   -0.0001129100    0.0139084100
   0.0000023200   -0.0000176300    0.0140699200
   0.0000356500   -0.0000000000    0.0140133700
   0.0000107200   -0.0000075700    0.0139986000
  -0.0000047200    0.0000134400    0.0140631500
   0.0000076800   -0.0000000000    0.0139850000
  -0.0000112000    0.0000125700    0.0138958000
   0.0000005500    0.0000065500    0.0140569200
  -0.0000047200   -0.0000134400    0.0140631500
   0.0000342000   -0.0000162800    0.0140911200
   0.0000104700   -0.0000000000    0.0141444300
   0.0000005500   -0.0000065500    0.0140569200
  -0.0000233600   -0.0000079900    0.0140341200
   0.0000011500   -0.0000000000    0.0140406600
   0.0000023200    0.0000176200    0.0140699200
   0.0000052500   -0.0000012100    0.0140378200
   0.0000106100   -0.0000000000    0.0140500000
  -0.0000112000   -0.0000125700    0.0138958000
  -0.0010197000   -0.0000000000    0.0144448000
  -0.0000233600    0.0000079900    0.0140341200
   0.0000015100    0.0001129100    0.0139084100
   0.0000156300   -0.0000000000    0.0139975000
   0.0000052500    0.0000012100    0.0140378200
   0.0000107200    0.0000075700    0.0139986000
   0.0000793300   -0.0000000000    0.0140600600
   0.0000342000    0.0000162800    0.0140911200
   0.0001495600    0.0155542000    0.0001050200
   0.0000238100    0.0139077000   -0.0000896700
   0.0000092300    0.0140589100   -0.0000137100
   0.0000017300    0.0140539700   -0.0000091600
   0.0000657200    0.0141068200   -0.0000174200
   0.0000546700    0.0141988800    0.0000091200
  -0.0000121500    0.0137848300    0.0000329700
   0.0018532000    0.0162746100    0.0004482100
  -0.0000226500    0.0140524800    0.0000376200
   0.0000377600    0.0140233100   -0.0000016800
   0.0000119400    0.0140179100   -0.0000125500
  -0.0000058000    0.0140813700    0.0000093300
   0.0000002100    0.0140637100   -0.0000144400
  -0.0000141600    0.0140931100   -0.0000315800
  -0.0000001100    0.0140498700    0.0000000900
  -0.0000655400    0.0138432600    0.0000919600
  -0.0000233200    0.0140382400    0.0000113100
  -0.0000019600    0.0140344900    0.0000047100
   0.0000097800    0.0140229100   -0.0000017600
  -0.0000555100    0.0139659900   -0.0000315000
   0.0000011900    0.0140516500   -0.0000022900
   0.0000006100    0.0140774100    0.0000139200
   0.0000060200    0.0140450700   -0.0000056600
   0.0000093300    0.0140500600    0.0000000700
   0.0000063200    0.0139973700    0.0000082400
   0.0000410000    0.0140372400    0.0000112000
   0.0000124200    0.0140388200    0.0000234700
   0.0001495500   -0.0155542000    0.0001050300
   0.0000006100   -0.0140774100    0.0000139200
  -0.0000655400   -0.0138432600    0.0000919600
   0.0000017200   -0.0140539700   -0.0000091600
   0.0000063200   -0.0139973700    0.0000082400
   0.0000377500   -0.0140233100   -0.0000016800
  -0.0000121500   -0.0137848300    0.0000329700
   0.0000097700   -0.0140229100   -0.0000017600
   0.0000002000   -0.0140637100   -0.0000144400
   0.0000546700   -0.0141988800    0.0000091200
   0.0000124200   -0.0140388200    0.0000234700
  -0.0000058100   -0.0140813700    0.0000093300
  -0.0000226500   -0.0140524800    0.0000376200
   0.0000011900   -0.0140516500   -0.0000022900
  -0.0000001100   -0.0140498700    0.0000000900
   0.0000092300   -0.0140589100   -0.0000137100
   0.0000093300   -0.0140500600    0.0000000700
  -0.0000019600   -0.0140344900    0.0000047100
   0.0018532000   -0.0162746100    0.0004482200
  -0.0000555100   -0.0139659900   -0.0000315000
  -0.0000141600   -0.0140931100   -0.0000315800
   0.0000238100   -0.0139077000   -0.0000896700
   0.0000060200   -0.0140450700   -0.0000056600
  -0.0000233300   -0.0140382400    0.0000113100
   0.0000657200   -0.0141068200   -0.0000174200
   0.0000410000   -0.0140372400    0.0000112100
   0.0000119400   -0.0140179100   -0.0000125500
  -0.0001136400    0.0000410900    0.0000497200
   0.0000006900   -0.0000027400    0.0000002000
  -0.0000959300   -0.0000514600   -0.0000445400
  -0.0000062700   -0.0000433900    0.0000777400
  -0.0000047000   -0.0000645400    0.0000217300
  -0.0000204500   -0.0000031000    0.0000127100
   0.0005764700    0.0007319900   -0.0009153300
   0.0000273800    0.0000382400    0.0000046500
   0.0000451000   -0.0000018300    0.0000071800
   0.0000083600    0.0000387700   -0.0000293100
   0.0000100300    0.0000078500   -0.0000256000
  -0.0000171700    0.0000067300    0.0000027400
   0.0000085300   -0.0000274400    0.0000181200
  -0.0000211500    0.0000051900    0.0000137900
  -0.0000157200   -0.0000100700   -0.0000011600
  -0.0000243600    0.0000640500   -0.0000115200
  -0.0000154300    0.0000089500   -0.0000189900
  -0.0000046500    0.0000167800   -0.0000629000
   0.0002681800   -0.0001177400   -0.0000620600
   0.0000153400    0.0000246100    0.0000486300
   0.0000334300   -0.0000034900   -0.0000221200
  -0.0000509500   -0.0000052200    0.0000678200
  -0.0000389000   -0.0000177700    0.0000075100
  -0.0000314800   -0.0000671000    0.0000110900
  -0.0002994200    0.0002422300    0.0000658800
  -0.0000952800    0.0000060900   -0.0001707600
  -0.0000091100    0.0000209100    0.0000070700
   0.0005764700   -0.0007319900   -0.0009153300
   0.0002681800    0.0001177400   -0.0000620600
   0.0000085300    0.0000274400    0.0000181200
  -0.0001136400   -0.0000410900    0.0000497200
  -0.0000509500    0.0000052200    0.0000678200
  -0.0000243600   -0.0000640500   -0.0000115200
  -0.0000062700    0.0000433900    0.0000777400
  -0.0002994200   -0.0002422300    0.0000658800
   0.0000083600   -0.0000387700   -0.0000293100
  -0.0000959300    0.0000514600   -0.0000445400
  -0.0000314800    0.0000671000    0.0000110900
  -0.0000046500   -0.0000167800   -0.0000629000
  -0.0000204500    0.0000031000    0.0000127100
  -0.0000091100   -0.0000209100    0.0000070700
  -0.0000171700   -0.0000067300    0.0000027400
   0.0000451000    0.0000018300    0.0000071800
   0.0000334300    0.0000034900   -0.0000221200
  -0.0000157200    0.0000100700   -0.0000011600
  -0.0000047000    0.0000645400    0.0000217300
  -0.0000952800   -0.0000060900   -0.0001707600
   0.0000100300   -0.0000078500   -0.0000256000
   0.0000273800   -0.0000382400    0.0000046500
   0.0000153400   -0.0000246100    0.0000486300
  -0.0000211500   -0.0000051900    0.0000137900
   0.0000006900    0.0000027400    0.0000002000
  -0.0000389000    0.0000177700    0.0000075100
  -0.0000154300   -0.0000089500   -0.0000189900
   0.0006373200    0.0000000000   -0.0011695200
   0.0003672300    0.0009457000   -0.0001078500
  -0.0000063600    0.0000645400   -0.0000382200
  -0.0002279700   -0.0000000000   -0.0000003800
  -0.0000554500    0.0000356600    0.0000714200
  -0.0000280400   -0.0000845500   -0.0000493400
  -0.0000148400   -0.0000000000    0.0000921400
   0.0000525400   -0.0003112700    0.0001415400
  -0.0000188000   -0.0000384800    0.0000047700
  -0.0000280400    0.0000845500   -0.0000493400
  -0.0003484400    0.0000594200   -0.0000423000
  -0.0001005300    0.0000000000   -0.0001212800
  -0.0000188000    0.0000384800    0.0000047700
   0.0001610500   -0.0000383000   -0.0001314200
  -0.0000228200   -0.0000000000    0.0000147300
  -0.0000063600   -0.0000645400   -0.0000382200
  -0.0000461900    0.0000157000    0.0000413400
  -0.0000599900   -0.0000000000    0.0000043400
   0.0000525400    0.0003112700    0.0001415400
   0.0220670000    0.0000000000   -0.0024626000
   0.0001610500    0.0000383000   -0.0001314200
   0.0003672300   -0.0009457000   -0.0001078500
   0.0000926700   -0.0000000000    0.0007093600
  -0.0000461900   -0.0000157000    0.0000413400
  -0.0000554500   -0.0000356600    0.0000714200
  -0.0005958900   -0.0000000000   -0.0000032900
  -0.0003484400   -0.0000594200   -0.0000423000

1    
 -0.0070710678032752  -0.0000000008135523   0.0070710678204557
   0.0574424100    0.0000000000   -0.0077639900
   0.0220732700    0.0000740900    0.0000655800
   0.0220456000    0.0000454300    0.0000369600
   0.0215753400    0.0000000000    0.0001725500
   0.0220526000   -0.0000130600    0.0000159300
   0.0217042700   -0.0001845100   -0.0000005100
   0.0215167800    0.0000000000    0.0001169500
   0.0217032400   -0.0001307500   -0.0000006100
   0.0220473400   -0.0000079500    0.0000107200
   0.0217042700    0.0001845200   -0.0000005100
   0.0220662500    0.0000110200   -0.0000083700
   0.0218328600    0.0000000000   -0.0001994700
   0.0220473400    0.0000079500    0.0000107200
   0.0220714600   -0.0000060700   -0.0000031000
   0.0220608900    0.0000000000    0.0000090300
   0.0220456000   -0.0000454300    0.0000369600
   0.0220489400    0.0000024400    0.0000019300
   0.0220468000    0.0000000000    0.0000063600
   0.0217032400    0.0001307500   -0.0000006100
   0.0218905000    0.0000000000   -0.0001435200
   0.0220714600    0.0000060700   -0.0000031000
   0.0220732700   -0.0000740800    0.0000655800
   0.0220514800    0.0000000000    0.0000114900
   0.0220489400   -0.0000024400    0.0000019300
   0.0220526000    0.0000130600    0.0000159300
   0.0220615600    0.0000000000    0.0000091200
   0.0220662500   -0.0000110200   -0.0000083700
  -0.0221259200   -0.0000000000    0.0000258500
  -0.0220706000   -0.0000155500   -0.0000102000
  -0.0220865600    0.0000002400    0.0000057300
  -0.0220336100   -0.0000000000   -0.0000051100
  -0.0220126700   -0.0000319500    0.0000186900
  -0.0220333300   -0.0000001300   -0.0000011300
  -0.0219180300   -0.0000000000   -0.0000868100
  -0.0219762000    0.0000593100   -0.0000508900
  -0.0220807800    0.0000003200    0.0000007900
  -0.0220333300    0.0000001300   -0.0000011300
  -0.0219769200    0.0000036500   -0.0000170900
  -0.0220334900   -0.0000000000   -0.0000050300
  -0.0220807800   -0.0000003200    0.0000007900
  -0.0220763600   -0.0000050500   -0.0000037100
  -0.0220682000   -0.0000000000   -0.0000125000
  -0.0220865600   -0.0000002400    0.0000057300
  -0.0220352100   -0.0000130400   -0.0000069900
  -0.0220483700   -0.0000000000    0.0000051700
  -0.0219762000   -0.0000593100   -0.0000508900
  -0.0220343500   -0.0000000000    0.0000338300
  -0.0220763600    0.0000050500   -0.0000037100
  -0.0220706000    0.0000155400   -0.0000102000
  -0.0220225200   -0.0000000000   -0.0000208400
  -0.0220352100    0.0000130400   -0.0000069900
  -0.0220126700    0.0000319400    0.0000186900
  -0.0231796700   -0.0000000000   -0.0001941600
  -0.0219769200   -0.0000036600   -0.0000170900
  -0.0007876400   -0.0000000000    0.0236010300
   0.0000021800   -0.0000210300    0.0220633800
   0.0000310600   -0.0000528300    0.0218909100
  -0.0000723800   -0.0000000000    0.0221497300
  -0.0000377100   -0.0000167200    0.0220504600
   0.0000031700   -0.0000073200    0.0220644100
  -0.0048759900   -0.0000000000    0.0258037600
   0.0000503000    0.0000029000    0.0219090400
  -0.0000006700    0.0000295700    0.0220875600
   0.0000031700    0.0000073200    0.0220644100
  -0.0000152700    0.0000049400    0.0220722200
  -0.0000110900   -0.0000000000    0.0220834000
  -0.0000006700   -0.0000295700    0.0220875600
  -0.0000027200    0.0000058200    0.0221072100
  -0.0000081900   -0.0000000000    0.0220769200
   0.0000310600    0.0000528200    0.0218909100
  -0.0000071900    0.0000040600    0.0220561300
   0.0000110300   -0.0000000000    0.0220837100
   0.0000503000   -0.0000029000    0.0219090400
  -0.0000011300   -0.0000000000    0.0220936300
  -0.0000027200   -0.0000058300    0.0221072100
   0.0000021800    0.0000210300    0.0220633800
  -0.0000135600   -0.0000000000    0.0220717400
  -0.0000071900   -0.0000040700    0.0220561300
  -0.0000377100    0.0000167200    0.0220504600
  -0.0000163000   -0.0000000000    0.0220568600
  -0.0000152700   -0.0000049400    0.0220722200
   0.0004207500    0.0000000000   -0.0232585100
  -0.0000120000    0.0000901800   -0.0219480500
   0.0000084000    0.0000006900   -0.0220758900
   0.0000079100    0.0000000000   -0.0220998800
  -0.0000040200   -0.0000075900   -0.0220527700
   0.0000093400   -0.0000134800   -0.0220747200
   0.0000177700    0.0000000000   -0.0220908400
   0.0000075600   -0.0000583000   -0.0219290700
   0.0000097800    0.0000055400   -0.0221142700
   0.0000093400    0.0000134800   -0.0220747200
  -0.0000223000    0.0000069800   -0.0220643400
  -0.0000346700    0.0000000000   -0.0220422600
   0.0000097800   -0.0000055300   -0.0221142700
   0.0000145600   -0.0000045400   -0.0220272500
   0.0000157200    0.0000000000   -0.0220735800
   0.0000084000   -0.0000006900   -0.0220758900
  -0.0000013800    0.0000000200   -0.0220475900
   0.0000104100    0.0000000000   -0.0220790800
   0.0000075600    0.0000583000   -0.0219290700
   0.0009635100    0.0000000000   -0.0218569000
   0.0000145600    0.0000045400   -0.0220272500
  -0.0000120000   -0.0000901800   -0.0219480500
  -0.0000180900    0.0000000000   -0.0220207400
  -0.0000013800   -0.0000000200   -0.0220475900
  -0.0000040200    0.0000076000   -0.0220527700
  -0.0000459500    0.0000000000   -0.0220502000
  -0.0000223000   -0.0000069800   -0.0220643400
  -0.0001877900   -0.0234251100   -0.0000786300
  -0.0000212600   -0.0218914200    0.0000684700
   0.0000021900   -0.0220592900    0.0000151000
   0.0000163900   -0.0220588000    0.0000143900
  -0.0000471100   -0.0220699900    0.0000117800
  -0.0000534800   -0.0220953000   -0.0000054600
   0.0000103900   -0.0218473100    0.0000239500
  -0.0019384600   -0.0238167200   -0.0004310800
   0.0000117400   -0.0220454700   -0.0000127200
  -0.0000015400   -0.0220912800    0.0000003400
  -0.0000109500   -0.0220562400   -0.0000064500
  -0.0000038600   -0.0220810600   -0.0000061700
   0.0000037100   -0.0221049900   -0.0000040700
   0.0000021900   -0.0220692600    0.0000124300
   0.0000037700   -0.0220753400   -0.0000002100
   0.0000404300   -0.0219459500   -0.0000753300
  -0.0000036100   -0.0220518500   -0.0000083400
  -0.0000022400   -0.0220499900   -0.0000003800
   0.0000083500   -0.0220918600    0.0000003500
   0.0000474600   -0.0219914200   -0.0000314100
   0.0000033400   -0.0221163100    0.0000075000
   0.0000083700   -0.0220795700   -0.0000069100
  -0.0000063500   -0.0220542000    0.0000038400
  -0.0000016600   -0.0220750800   -0.0000002300
  -0.0000083900   -0.0220687200    0.0000062900
  -0.0000312300   -0.0220533100   -0.0000084700
  -0.0000128800   -0.0220445500   -0.0000121700
  -0.0001877900    0.0234251100   -0.0000786300
   0.0000083700    0.0220795700   -0.0000069100
   0.0000404300    0.0219459500   -0.0000753300
   0.0000163900    0.0220588000    0.0000143900
  -0.0000083900    0.0220687200    0.0000062900
  -0.0000015400    0.0220912800    0.0000003400
   0.0000103900    0.0218473100    0.0000239500
   0.0000083500    0.0220918600    0.0000003400
   0.0000037100    0.0221049900   -0.0000040800
  -0.0000534700    0.0220953000   -0.0000054600
  -0.0000128800    0.0220445500   -0.0000121700
  -0.0000038600    0.0220810600   -0.0000061700
   0.0000117400    0.0220454700   -0.0000127300
   0.0000033500    0.0221163100    0.0000075000
   0.0000037700    0.0220753400   -0.0000002100
   0.0000021900    0.0220592900    0.0000150900
  -0.0000016500    0.0220750800   -0.0000002400
  -0.0000022400    0.0220499900   -0.0000003800
  -0.0019384600    0.0238167200   -0.0004310900
   0.0000474700    0.0219914200   -0.0000314200
   0.0000021900    0.0220692600    0.0000124300
  -0.0000212600    0.0218914200    0.0000684600
  -0.0000063400    0.0220542000    0.0000038300
  -0.0000036000    0.0220518500   -0.0000083500
  -0.0000471000    0.0220699900    0.0000117800
  -0.0000312300    0.0220533100   -0.0000084700
  -0.0000109400    0.0220562400   -0.0000064500
   0.0000787600    0.0000062700    0.0000012300
  -0.0000123900   -0.0000012100    0.0000060100
   0.0000702300    0.0000028600   -0.0000042000
  -0.0000121900    0.0000387600   -0.0000274600
  -0.0000131300    0.0000209300   -0.0000370000
  -0.0000118500   -0.0000208100    0.0000203800
  -0.0003975200   -0.0007597300    0.0009140900
   0.0000138900   -0.0000337600    0.0000175000
   0.0000104200   -0.0000144500    0.0000027500
  -0.0000205100   -0.0000094000    0.0000364700
  -0.0000215600   -0.0000340800    0.0000027100
  -0.0000099800    0.0000241200   -0.0000247900
   0.0000328500    0.0000167800   -0.0000055500
   0.0000194400   -0.0000160600   -0.0000169100
   0.0000225300    0.0000111000    0.0000107600
  -0.0000006800   -0.0000269300   -0.0000095800
  -0.0000075700   -0.0000107300    0.0000108500
  -0.0000082000    0.0000060600    0.0000309600
  -0.0001337800    0.0001033000    0.0000554500
   0.0000129300    0.0000142400   -0.0000400700
   0.0000094800    0.0000087000   -0.0000121100
   0.0000103300   -0.0000052500   -0.0000300200
   0.0000014100    0.0000142800   -0.0000149200
   0.0000025600    0.0000337500    0.0000027100
   0.0002308800   -0.0001964300   -0.0000563000
   0.0000418900   -0.0000191500    0.0001210600
  -0.0000211300   -0.0000068900    0.0000005700
  -0.0003975200    0.0007597300    0.0009140900
  -0.0001337800   -0.0001033000    0.0000554500
   0.0000328500   -0.0000167800   -0.0000055500
   0.0000787600   -0.0000062700    0.0000012300
   0.0000103300    0.0000052500   -0.0000300200
  -0.0000006800    0.0000269300   -0.0000095800
  -0.0000121900   -0.0000387600   -0.0000274600
   0.0002308800    0.0001964300   -0.0000563000
  -0.0000205100    0.0000094000    0.0000364700
   0.0000702300   -0.0000028600   -0.0000042000
   0.0000025600   -0.0000337500    0.0000027100
  -0.0000082000   -0.0000060600    0.0000309600
  -0.0000118500    0.0000208100    0.0000203800
  -0.0000211300    0.0000068900    0.0000005700
  -0.0000099800   -0.0000241200   -0.0000247900
   0.0000104200    0.0000144500    0.0000027500
   0.0000094800   -0.0000087000   -0.0000121100
   0.0000225300   -0.0000111000    0.0000107600
  -0.0000131300   -0.0000209300   -0.0000370000
   0.0000418900    0.0000191500    0.0001210600
  -0.0000215600    0.0000340800    0.0000027100
   0.0000138900    0.0000337600    0.0000175000
   0.0000129300   -0.0000142400   -0.0000400700
   0.0000194400    0.0000160600   -0.0000169100
  -0.0000123900    0.0000012100    0.0000060100
   0.0000014100   -0.0000142800   -0.0000149200
  -0.0000075700    0.0000107300    0.0000108500
  -0.0004184800   -0.0000000000    0.0009776400
  -0.0002613300   -0.0007792200    0.0000832500
   0.0000099300   -0.0000415600    0.0000270700
   0.0000626700    0.0000000000    0.0000112000
   0.0000124800   -0.0000022200   -0.0000071700
   0.0000077100    0.0000055900    0.0000000400
  -0.0000085100   -0.0000000000    0.0000064700
   0.0000016700    0.0002143100   -0.0000950600
  -0.0000125300   -0.0000169900    0.0000027900
   0.0000077100   -0.0000055900    0.0000000400
   0.0002426700    0.0000095600    0.0000157900
   0.0000815100    0.0000000000    0.0000131300
  -0.0000125300    0.0000169900    0.0000027900
  -0.0001109800    0.0000436900    0.0000759100
  -0.0000165200    0.0000000000   -0.0000285900
   0.0000099300    0.0000415600    0.0000270700
   0.0000212600   -0.0000208300   -0.0000364400
   0.0000009000   -0.0000000000    0.0000042200
   0.0000016700   -0.0002143100   -0.0000950600
  -0.0228194600   -0.0000000000    0.0021315100
  -0.0001109800   -0.0000436900    0.0000759100
  -0.0002613300    0.0007792200    0.0000832500
  -0.0001078500    0.0000000000   -0.0005916200
   0.0000212600    0.0000208300   -0.0000364400
   0.0000124800    0.0000022200   -0.0000071700
   0.0004032200    0.0000000000    0.0000317600
   0.0002426700   -0.0000095600    0.0000157900

163  
 -0.0000000008458913  -0.0070710677879540  -0.0070710678357769
   0.0220370300   -0.0000035800   -0.0000035800
   0.0220241400   -0.0000034600   -0.0000034600
   0.0220301300   -0.0000052400   -0.0000052400
   0.0220292600   -0.0001596900   -0.0001544100
   0.0220364600    0.0000095400    0.0000185600
   0.0220245200    0.0000183100    0.0000095500
   0.0220524200   -0.0000054700    0.0000098200
   0.0220302900    0.0000001300    0.0000002100
   0.0220083400    0.0000097300   -0.0000054000
   0.0220292600   -0.0001544100   -0.0001596900
   0.0220364600    0.0000185600    0.0000095400
   0.0220245200    0.0000095500    0.0000183100
   0.0218512900    0.0000742600    0.0000742600
   0.0220302800    0.0000055000    0.0000055000
   0.0222092600    0.0000741400    0.0000741400
   0.0219939900   -0.0000001500   -0.0000012100
   0.0220664200   -0.0000012000   -0.0000001500
   0.0220302500    0.0000003100    0.0000003200
   0.0220524200    0.0000098200   -0.0000054700
   0.0220302900    0.0000002100    0.0000001300
   0.0220083400   -0.0000054000    0.0000097300
   0.0219939900   -0.0000012100   -0.0000001500
   0.0220664200   -0.0000001500   -0.0000012000
   0.0220302500    0.0000003200    0.0000003100
   0.0220302300   -0.0000116500   -0.0000116500
   0.0220580200    0.0000054400    0.0000054400
   0.0220023200    0.0000054300    0.0000054300
  -0.0212000600   -0.0007856400   -0.0007856400
  -0.0228716500   -0.0008441900   -0.0008441900
  -0.0220304300    0.0000222600    0.0000222600
  -0.0220310700    0.0000056100    0.0000057600
  -0.0220540400    0.0000071400    0.0000000200
  -0.0220072400   -0.0000001200    0.0000071400
  -0.0220819700    0.0000059300    0.0000140400
  -0.0220297600   -0.0001379800   -0.0001387200
  -0.0219782700    0.0000143400    0.0000059400
  -0.0220310700    0.0000057600    0.0000056100
  -0.0220540400    0.0000000200    0.0000071400
  -0.0220072400    0.0000071400   -0.0000001200
  -0.0219847400    0.0000036400    0.0000036400
  -0.0220302100   -0.0000072900   -0.0000072900
  -0.0220759000    0.0000036300    0.0000036300
  -0.0219945600   -0.0000153000    0.0000182700
  -0.0220661500    0.0000184500   -0.0000155000
  -0.0220303700    0.0000005500    0.0000004400
  -0.0220819700    0.0000140400    0.0000059300
  -0.0220297600   -0.0001387200   -0.0001379800
  -0.0219782700    0.0000059400    0.0000143400
  -0.0219945600    0.0000182700   -0.0000153000
  -0.0220661500   -0.0000155000    0.0000184500
  -0.0220303700    0.0000004400    0.0000005500
  -0.0220302000   -0.0000074900   -0.0000074900
  -0.0220558600    0.0000036500    0.0000036500
  -0.0220044800    0.0000036700    0.0000036700
   0.0004535700   -0.0006110700    0.0213484500
  -0.0000001600    0.0000056400    0.0221011100
  -0.0000094500    0.0000167500    0.0220279400
  -0.0000091300   -0.0000032600    0.0221070000
  -0.0000010400    0.0000012300    0.0219959400
   0.0000100700    0.0000173100    0.0220212100
  -0.0000069700    0.0000041100    0.0220500500
   0.0000011400   -0.0000005300    0.0220267900
   0.0000010600   -0.0000062200    0.0220180500
   0.0002023900   -0.0003596800    0.0221836100
  -0.0000054200    0.0000085100    0.0220610900
   0.0001986900    0.0000617300    0.0222548700
  -0.0000097100    0.0000052100    0.0220249800
   0.0000062500   -0.0000007900    0.0220093800
  -0.0000012900   -0.0000051100    0.0220569600
   0.0000123100   -0.0001254700    0.0220769400
   0.0000147700    0.0000197900    0.0220626600
  -0.0000061200    0.0000065500    0.0220398900
  -0.0000170500    0.0000054200    0.0220627000
   0.0000082700    0.0000019600    0.0220375900
   0.0000023300   -0.0000033100    0.0219761800
  -0.0000021200   -0.0000094300    0.0220014900
  -0.0000026000    0.0000028200    0.0220414000
   0.0000039700    0.0000047000    0.0220371100
  -0.0000020400    0.0000074500    0.0219980800
   0.0000007800    0.0000015200    0.0220649600
   0.0000026400   -0.0000022300    0.0220141500
   0.0000003900    0.0000053300   -0.0219607500
  -0.0004666900   -0.0006233500   -0.0227134400
   0.0000095100    0.0000166800   -0.0220326700
  -0.0001928000   -0.0003497200   -0.0218770600
  -0.0002011500    0.0000615400   -0.0218037100
   0.0000053100    0.0000081900   -0.0219997100
  -0.0000025700   -0.0000036000   -0.0220844700
  -0.0000083500    0.0000017100   -0.0220229100
   0.0000169500    0.0000051800   -0.0219978600
   0.0000089900   -0.0000033300   -0.0219539300
  -0.0000102100    0.0000171400   -0.0220396900
   0.0000009900    0.0000010000   -0.0220651200
   0.0000011200   -0.0000052900   -0.0220038600
  -0.0000063800   -0.0000009900   -0.0220512200
   0.0000095000    0.0000050200   -0.0220357800
   0.0000025500    0.0000025700   -0.0220190900
   0.0000020700   -0.0000096900   -0.0220590300
  -0.0000040700    0.0000044600   -0.0220233400
  -0.0000010800   -0.0000065200   -0.0220423400
  -0.0000010800   -0.0000007900   -0.0220335600
   0.0000070500    0.0000038700   -0.0220106200
  -0.0000146500    0.0000193500   -0.0219976400
  -0.0000126700   -0.0001260800   -0.0219837500
   0.0000061300    0.0000062100   -0.0220205800
   0.0000020200    0.0000070700   -0.0220624000
  -0.0000026700   -0.0000025500   -0.0220462000
  -0.0000007900    0.0000011800   -0.0219956100
   0.0000003900   -0.0219607500    0.0000053300
  -0.0004666900   -0.0227134400   -0.0006233500
   0.0000095100   -0.0220326700    0.0000166800
   0.0000089900   -0.0219539300   -0.0000033300
  -0.0000102100   -0.0220396900    0.0000171400
   0.0000009900   -0.0220651200    0.0000010000
  -0.0000010800   -0.0220423400   -0.0000065200
  -0.0000010800   -0.0220335600   -0.0000007900
   0.0000070500   -0.0220106200    0.0000038700
  -0.0001928000   -0.0218770600   -0.0003497200
  -0.0002011500   -0.0218037100    0.0000615400
   0.0000053100   -0.0219997100    0.0000081900
   0.0000011200   -0.0220038600   -0.0000052900
  -0.0000063800   -0.0220512200   -0.0000009900
   0.0000095000   -0.0220357800    0.0000050200
  -0.0000146500   -0.0219976400    0.0000193500
  -0.0000126700   -0.0219837500   -0.0001260800
   0.0000061300   -0.0220205800    0.0000062100
  -0.0000025700   -0.0220844700   -0.0000036000
  -0.0000083500   -0.0220229100    0.0000017100
   0.0000169500   -0.0219978600    0.0000051800
   0.0000025500   -0.0220190900    0.0000025700
   0.0000020700   -0.0220590300   -0.0000096900
  -0.0000040700   -0.0220233400    0.0000044600
   0.0000020100   -0.0220624000    0.0000070700
  -0.0000026700   -0.0220462000   -0.0000025500